<?xml version="1.0" encoding="UTF-8"?>

<!-- generated on 2026-03-07T14:26:54.638261+01:00 by Eclipse SUMO GUI 1.26.0
<sumoConfiguration xmlns:xsi="http://www.w3.org/2001/XMLSchema-instance" xsi:noNamespaceSchemaLocation="http://sumo.dlr.de/xsd/sumoConfiguration.xsd">

    <input>
        <net-file value="C:\Program Files (x86)\Eclipse\Sumo\tools\2026-03-07-14-26-30\osm.net.xml.gz"/>
        <route-files value="C:\Program Files (x86)\Eclipse\Sumo\tools\2026-03-07-14-26-30\osm_pt.rou.xml,C:\Program Files (x86)\Eclipse\Sumo\tools\2026-03-07-14-26-30\osm.passenger.trips.xml"/>
        <additional-files value="C:\Program Files (x86)\Eclipse\Sumo\tools\2026-03-07-14-26-30\osm.poly.xml.gz,C:\Program Files (x86)\Eclipse\Sumo\tools\2026-03-07-14-26-30\osm_stops.add.xml,C:\Program Files (x86)\Eclipse\Sumo\tools\2026-03-07-14-26-30\output.add.xml"/>
    </input>

    <output>
        <tripinfo-output value="C:\Program Files (x86)\Eclipse\Sumo\tools\2026-03-07-14-26-30\tripinfos.xml"/>
        <stop-output value="C:\Program Files (x86)\Eclipse\Sumo\tools\2026-03-07-14-26-30\stopinfos.xml"/>
        <statistic-output value="C:\Program Files (x86)\Eclipse\Sumo\tools\2026-03-07-14-26-30\stats.xml"/>
    </output>

    <processing>
        <ignore-route-errors value="true"/>
        <tls.actuated.jam-threshold value="30"/>
    </processing>

    <routing>
        <device.rerouting.adaptation-steps value="18"/>
        <device.rerouting.adaptation-interval value="10"/>
    </routing>

    <report>
        <verbose value="true"/>
        <duration-log.statistics value="true"/>
        <no-step-log value="true"/>
    </report>

    <gui_only>
        <gui-settings-file value="C:\Program Files (x86)\Eclipse\Sumo\tools\2026-03-07-14-26-30\osm.view.xml"/>
    </gui_only>

</sumoConfiguration>
-->

<meandata xmlns:xsi="http://www.w3.org/2001/XMLSchema-instance" xsi:noNamespaceSchemaLocation="http://sumo.dlr.de/xsd/meandata_file.xsd">
    <interval begin="0.00" end="3149.00" id="wizard_example">
        <edge id="-1027271884#2" sampledSeconds="779.00" traveltime="42.86" overlapTraveltime="44.19" density="0.96" overlapDensity="0.97" laneDensity="0.96" occupancy="0.97" waitingTime="84.00" timeLoss="200.14" speed="6.02" speedRelative="0.43" departed="0" arrived="18" entered="18" left="0" laneChangedFrom="0" laneChangedTo="0" flow="20.58"/>
        <edge id="-1063332437#4" sampledSeconds="96.40" traveltime="18.44" overlapTraveltime="19.69" density="0.20" overlapDensity="0.21" laneDensity="0.20" occupancy="0.10" waitingTime="0.00" timeLoss="13.46" speed="7.53" speedRelative="0.90" departed="3" arrived="1" entered="2" left="4" laneChangedFrom="0" laneChangedTo="0" flow="5.59"/>
        <edge id="-1063332489#1" sampledSeconds="20805.90" traveltime="151.30" overlapTraveltime="152.49" density="60.27" overlapDensity="60.70" laneDensity="60.27" occupancy="30.24" waitingTime="17066.00" timeLoss="18906.11" speed="0.75" speedRelative="0.09" departed="150" arrived="0" entered="0" left="136" laneChangedFrom="0" laneChangedTo="0" teleported="2" flow="156.11"/>
        <edge id="-1083813154#0" sampledSeconds="2717.21" traveltime="140.50" overlapTraveltime="146.00" density="1.33" overlapDensity="1.44" laneDensity="1.33" occupancy="18.68" waitingTime="0.00" timeLoss="1591.61" speed="5.03" speedRelative="0.23" departed="23" arrived="0" entered="0" left="23" laneChangedFrom="0" laneChangedTo="0" flow="20.37"/>
        <edge id="-1091389055" sampledSeconds="21145.95" traveltime="672.84" overlapTraveltime="682.11" density="58.13" overlapDensity="58.20" laneDensity="58.13" occupancy="29.08" waitingTime="20004.00" timeLoss="20863.99" speed="0.18" speedRelative="0.01" departed="40" arrived="0" entered="0" left="25" laneChangedFrom="0" laneChangedTo="0" teleported="3" flow="35.89"/>
        <edge id="-1091389070#1" sampledSeconds="0.00" departed="0" arrived="0" entered="0" left="0" laneChangedFrom="0" laneChangedTo="0"/>
        <edge id="-1091389078#3" sampledSeconds="0.00" departed="0" arrived="0" entered="0" left="0" laneChangedFrom="0" laneChangedTo="0"/>
        <edge id="-1147626421#1" sampledSeconds="14024.17" traveltime="90.34" overlapTraveltime="91.21" density="54.09" overlapDensity="54.60" laneDensity="54.09" occupancy="27.17" waitingTime="11520.00" timeLoss="12412.36" speed="0.95" speedRelative="0.11" departed="0" arrived="0" entered="159" left="148" laneChangedFrom="0" laneChangedTo="0" teleported="1" flow="175.82"/>
        <edge id="-1154069599#0" sampledSeconds="90.43" traveltime="5.35" overlapTraveltime="5.73" density="0.39" overlapDensity="0.42" laneDensity="0.39" occupancy="0.20" waitingTime="0.00" timeLoss="7.30" speed="12.91" speedRelative="0.93" departed="0" arrived="16" entered="16" left="0" laneChangedFrom="0" laneChangedTo="0" flow="18.29"/>
        <edge id="-1155011204#1" sampledSeconds="55040.14" traveltime="782.85" overlapTraveltime="786.96" density="50.84" overlapDensity="50.86" laneDensity="50.84" occupancy="25.40" waitingTime="50776.00" timeLoss="53262.62" speed="0.44" speedRelative="0.03" departed="0" arrived="0" entered="93" left="47" laneChangedFrom="0" laneChangedTo="0" flow="80.34"/>
        <edge id="-1164203052" sampledSeconds="0.00" departed="0" arrived="0" entered="0" left="0" laneChangedFrom="0" laneChangedTo="0"/>
        <edge id="-1164856803#1" sampledSeconds="8944.28" traveltime="96.23" overlapTraveltime="113.03" density="68.81" overlapDensity="81.36" laneDensity="68.81" occupancy="39.78" waitingTime="7979.00" timeLoss="8715.71" speed="0.35" speedRelative="0.03" departed="0" arrived="0" entered="98" left="90" laneChangedFrom="0" laneChangedTo="0" flow="89.87"/>
        <edge id="-1178302486" sampledSeconds="1701.98" traveltime="46.56" overlapTraveltime="49.52" density="37.24" overlapDensity="49.00" laneDensity="37.24" occupancy="22.59" waitingTime="1491.00" timeLoss="1605.60" speed="0.32" speedRelative="0.04" departed="48" arrived="0" entered="2" left="49" laneChangedFrom="0" laneChangedTo="0" teleported="2" flow="31.76"/>
        <edge id="-1178303352#1" sampledSeconds="3640.06" traveltime="100.87" overlapTraveltime="101.68" density="29.35" overlapDensity="29.56" laneDensity="29.35" occupancy="14.74" waitingTime="3358.00" timeLoss="3448.34" speed="0.43" speedRelative="0.05" departed="7" arrived="0" entered="34" left="36" laneChangedFrom="0" laneChangedTo="0" teleported="2" flow="40.95"/>
        <edge id="-1178303967#1" sampledSeconds="1936.56" traveltime="19.64" overlapTraveltime="21.19" density="28.29" overlapDensity="30.46" laneDensity="28.29" occupancy="31.25" waitingTime="1592.00" timeLoss="1678.32" speed="1.52" speedRelative="0.11" departed="0" arrived="0" entered="96" left="94" laneChangedFrom="0" laneChangedTo="0" flow="104.71"/>
        <edge id="-1180195345" sampledSeconds="4.12" traveltime="2.05" overlapTraveltime="4.12" density="0.04" overlapDensity="0.07" laneDensity="0.04" occupancy="0.05" waitingTime="0.00" timeLoss="0.45" speed="7.41" speedRelative="0.53" departed="0" arrived="0" entered="1" left="1" laneChangedFrom="0" laneChangedTo="0" flow="1.14"/>
        <edge id="-1187686184" sampledSeconds="112.67" traveltime="53.09" overlapTraveltime="56.33" density="0.39" overlapDensity="0.42" laneDensity="0.39" occupancy="0.48" waitingTime="0.00" timeLoss="11.93" speed="1.73" speedRelative="0.31" departed="0" arrived="0" entered="2" left="2" laneChangedFrom="0" laneChangedTo="0" flow="2.29"/>
        <edge id="-1233892219" sampledSeconds="12609.04" traveltime="141.84" overlapTraveltime="164.60" density="75.26" overlapDensity="87.43" laneDensity="75.26" occupancy="37.98" waitingTime="11327.00" timeLoss="12133.72" speed="0.31" speedRelative="0.04" departed="24" arrived="0" entered="66" left="84" laneChangedFrom="0" laneChangedTo="0" flow="87.49"/>
        <edge id="-1233892220#2" sampledSeconds="29735.28" traveltime="428.20" overlapTraveltime="431.96" density="80.69" overlapDensity="80.97" laneDensity="40.35" occupancy="19.94" waitingTime="27026.00" timeLoss="28704.82" speed="0.28" speedRelative="0.03" departed="0" arrived="0" entered="83" left="62" laneChangedFrom="0" laneChangedTo="0" teleported="3" flow="79.11"/>
        <edge id="-1233897558#1" sampledSeconds="15283.07" traveltime="172.35" overlapTraveltime="176.53" density="76.85" overlapDensity="78.41" laneDensity="76.85" occupancy="36.51" waitingTime="13973.00" timeLoss="14569.20" speed="0.38" speedRelative="0.05" departed="7" arrived="0" entered="90" left="87" laneChangedFrom="0" laneChangedTo="0" teleported="4" flow="99.37"/>
        <edge id="-1316855122#3" sampledSeconds="41027.14" traveltime="206.02" overlapTraveltime="207.49" density="36.70" overlapDensity="36.85" laneDensity="36.70" occupancy="20.95" waitingTime="26454.00" timeLoss="31843.15" speed="1.73" speedRelative="0.21" departed="0" arrived="29" entered="202" left="161" laneChangedFrom="0" laneChangedTo="0" teleported="2" flow="226.74"/>
        <edge id="-1337359712#2" sampledSeconds="34303.14" traveltime="599.30" overlapTraveltime="603.68" density="65.66" overlapDensity="65.75" laneDensity="32.83" occupancy="16.45" waitingTime="30709.00" timeLoss="33093.46" speed="0.28" speedRelative="0.03" departed="8" arrived="2" entered="60" left="44" laneChangedFrom="0" laneChangedTo="0" teleported="1" flow="65.34"/>
        <edge id="-1337360592#1" sampledSeconds="32122.32" traveltime="321.59" overlapTraveltime="339.44" density="66.42" overlapDensity="69.91" laneDensity="66.42" occupancy="34.01" waitingTime="28859.00" timeLoss="30376.78" speed="0.44" speedRelative="0.05" departed="18" arrived="0" entered="93" left="91" laneChangedFrom="0" laneChangedTo="0" flow="108.49"/>
        <edge id="-1348067248" sampledSeconds="8571.12" traveltime="118.18" overlapTraveltime="119.72" density="68.87" overlapDensity="69.33" laneDensity="68.87" occupancy="34.41" waitingTime="7935.00" timeLoss="8208.24" speed="0.37" speedRelative="0.04" departed="0" arrived="0" entered="79" left="74" laneChangedFrom="0" laneChangedTo="0" teleported="1" flow="82.37"/>
        <edge id="-1417601252#0" sampledSeconds="0.00" departed="0" arrived="0" entered="0" left="0" laneChangedFrom="0" laneChangedTo="0"/>
        <edge id="-175334160#2" sampledSeconds="29139.37" traveltime="238.32" overlapTraveltime="240.14" density="72.02" overlapDensity="72.28" laneDensity="72.02" occupancy="35.98" waitingTime="24880.00" timeLoss="27169.08" speed="0.55" speedRelative="0.07" departed="1" arrived="0" entered="131" left="115" laneChangedFrom="0" laneChangedTo="0" teleported="4" flow="139.28"/>
        <edge id="-175920328#2" sampledSeconds="126.77" traveltime="13.74" overlapTraveltime="14.12" density="0.22" overlapDensity="0.23" laneDensity="0.22" occupancy="0.11" waitingTime="0.00" timeLoss="11.02" speed="12.80" speedRelative="0.92" departed="0" arrived="9" entered="9" left="0" laneChangedFrom="0" laneChangedTo="0" flow="10.29"/>
        <edge id="-177188734" sampledSeconds="0.00" departed="0" arrived="0" entered="0" left="0" laneChangedFrom="0" laneChangedTo="0"/>
        <edge id="-183709895#0" sampledSeconds="0.00" departed="0" arrived="0" entered="0" left="0" laneChangedFrom="0" laneChangedTo="0"/>
        <edge id="-183709895#1" sampledSeconds="0.00" departed="0" arrived="0" entered="0" left="0" laneChangedFrom="0" laneChangedTo="0"/>
        <edge id="-183709897" sampledSeconds="0.00" departed="0" arrived="0" entered="0" left="0" laneChangedFrom="0" laneChangedTo="0"/>
        <edge id="-183709899#0" sampledSeconds="69.84" traveltime="16.84" overlapTraveltime="17.61" density="0.16" overlapDensity="0.17" laneDensity="0.16" occupancy="0.08" waitingTime="0.00" timeLoss="9.32" speed="7.67" speedRelative="0.92" departed="0" arrived="1" entered="4" left="3" laneChangedFrom="0" laneChangedTo="0" flow="4.57"/>
        <edge id="-183709899#1" sampledSeconds="10.36" traveltime="4.58" overlapTraveltime="5.18" density="0.08" overlapDensity="0.09" laneDensity="0.08" occupancy="0.04" waitingTime="0.00" timeLoss="1.50" speed="7.65" speedRelative="0.92" departed="0" arrived="1" entered="2" left="1" laneChangedFrom="0" laneChangedTo="0" flow="2.29"/>
        <edge id="-183709900#0" sampledSeconds="251.73" traveltime="9.02" overlapTraveltime="9.40" density="0.73" overlapDensity="0.76" laneDensity="0.73" occupancy="0.36" waitingTime="0.00" timeLoss="38.85" speed="11.78" speedRelative="0.85" departed="0" arrived="27" entered="27" left="0" laneChangedFrom="0" laneChangedTo="0" flow="30.87"/>
        <edge id="-183709900#1" sampledSeconds="0.00" departed="0" arrived="0" entered="0" left="0" laneChangedFrom="0" laneChangedTo="0"/>
        <edge id="-183709901" sampledSeconds="0.00" departed="0" arrived="0" entered="0" left="0" laneChangedFrom="0" laneChangedTo="0"/>
        <edge id="-183709902" sampledSeconds="1276.17" traveltime="22.34" overlapTraveltime="23.00" density="2.52" overlapDensity="2.57" laneDensity="2.52" occupancy="1.25" waitingTime="0.00" timeLoss="192.72" speed="7.08" speedRelative="0.85" departed="0" arrived="56" entered="56" left="0" laneChangedFrom="0" laneChangedTo="0" flow="64.02"/>
        <edge id="-183709903" sampledSeconds="279.52" traveltime="7.29" overlapTraveltime="8.23" density="1.64" overlapDensity="1.85" laneDensity="1.64" occupancy="0.83" waitingTime="0.00" timeLoss="57.35" speed="6.43" speedRelative="0.77" departed="0" arrived="1" entered="34" left="33" laneChangedFrom="0" laneChangedTo="0" flow="38.87"/>
        <edge id="-183709907" sampledSeconds="1968.96" traveltime="24.22" overlapTraveltime="24.92" density="3.49" overlapDensity="3.59" laneDensity="3.49" occupancy="1.74" waitingTime="0.00" timeLoss="264.18" speed="7.18" speedRelative="0.86" departed="0" arrived="1" entered="79" left="78" laneChangedFrom="0" laneChangedTo="0" flow="90.31"/>
        <edge id="-183709908#0" sampledSeconds="774.19" traveltime="15.10" overlapTraveltime="15.78" density="2.27" overlapDensity="2.32" laneDensity="2.27" occupancy="1.12" waitingTime="0.00" timeLoss="117.08" speed="7.02" speedRelative="0.84" departed="0" arrived="50" entered="50" left="0" laneChangedFrom="0" laneChangedTo="0" flow="57.16"/>
        <edge id="-183709908#1" sampledSeconds="1699.72" traveltime="11.02" overlapTraveltime="12.15" density="9.32" overlapDensity="10.27" laneDensity="9.32" occupancy="4.69" waitingTime="0.00" timeLoss="680.54" speed="4.74" speedRelative="0.57" departed="0" arrived="1" entered="140" left="139" laneChangedFrom="0" laneChangedTo="0" flow="160.05"/>
        <edge id="-183709910" sampledSeconds="14.96" traveltime="6.59" overlapTraveltime="7.48" density="0.09" overlapDensity="0.10" laneDensity="0.09" occupancy="0.04" waitingTime="0.00" timeLoss="2.56" speed="7.06" speedRelative="0.85" departed="0" arrived="0" entered="2" left="2" laneChangedFrom="0" laneChangedTo="0" flow="2.29"/>
        <edge id="-203465646" sampledSeconds="4234.82" traveltime="58.48" overlapTraveltime="58.53" density="82.46" overlapDensity="83.95" laneDensity="82.46" occupancy="41.29" waitingTime="3853.00" timeLoss="4108.34" speed="0.36" speedRelative="0.03" departed="1" arrived="0" entered="75" left="73" laneChangedFrom="0" laneChangedTo="0" teleported="6" flow="81.32"/>
        <edge id="-225078984#2" sampledSeconds="16996.74" traveltime="133.87" overlapTraveltime="138.94" density="33.33" overlapDensity="35.01" laneDensity="33.33" occupancy="18.47" waitingTime="13467.00" timeLoss="14656.23" speed="1.15" speedRelative="0.14" departed="1" arrived="0" entered="130" left="114" laneChangedFrom="0" laneChangedTo="0" flow="138.21"/>
        <edge id="-227216232#1" sampledSeconds="38684.00" traveltime="329.88" overlapTraveltime="350.34" density="78.74" overlapDensity="83.27" laneDensity="39.37" occupancy="21.46" waitingTime="34763.00" timeLoss="37450.89" speed="0.44" speedRelative="0.03" departed="35" arrived="2" entered="89" left="88" laneChangedFrom="7" laneChangedTo="7" flow="126.76"/>
        <edge id="-255909082#3" sampledSeconds="292.10" traveltime="35.88" overlapTraveltime="36.87" density="0.53" overlapDensity="0.54" laneDensity="0.53" occupancy="0.26" waitingTime="0.00" timeLoss="35.34" speed="4.83" speedRelative="0.87" departed="0" arrived="8" entered="8" left="0" laneChangedFrom="0" laneChangedTo="0" flow="9.15"/>
        <edge id="-256314608#1" sampledSeconds="10865.44" traveltime="133.67" overlapTraveltime="135.54" density="64.95" overlapDensity="65.34" laneDensity="64.95" occupancy="32.50" waitingTime="9894.00" timeLoss="10308.02" speed="0.43" speedRelative="0.05" departed="0" arrived="1" entered="84" left="76" laneChangedFrom="0" laneChangedTo="0" teleported="4" flow="92.38"/>
        <edge id="-27475518#4" sampledSeconds="38327.46" traveltime="280.26" overlapTraveltime="281.69" density="58.59" overlapDensity="58.75" laneDensity="58.59" occupancy="29.34" waitingTime="31208.00" timeLoss="34832.99" speed="0.75" speedRelative="0.09" departed="153" arrived="0" entered="0" left="126" laneChangedFrom="0" laneChangedTo="0" teleported="3" flow="155.91"/>
        <edge id="-27475580#2" sampledSeconds="0.00" departed="0" arrived="0" entered="0" left="0" laneChangedFrom="0" laneChangedTo="0"/>
        <edge id="-27475852" sampledSeconds="3686.51" traveltime="49.46" overlapTraveltime="50.50" density="66.09" overlapDensity="67.51" laneDensity="66.09" occupancy="31.10" waitingTime="3314.00" timeLoss="3483.77" speed="0.44" speedRelative="0.05" departed="2" arrived="1" entered="73" left="72" laneChangedFrom="0" laneChangedTo="0" teleported="1" flow="83.41"/>
        <edge id="-27476683" sampledSeconds="29090.50" traveltime="247.70" overlapTraveltime="249.20" density="53.70" overlapDensity="53.88" laneDensity="53.70" occupancy="26.88" waitingTime="24520.00" timeLoss="26625.02" speed="0.71" speedRelative="0.09" departed="91" arrived="0" entered="39" left="108" laneChangedFrom="0" laneChangedTo="0" teleported="2" flow="133.81"/>
        <edge id="-278396895#1" sampledSeconds="31511.08" traveltime="1142.70" overlapTraveltime="1158.13" density="37.42" overlapDensity="37.43" laneDensity="37.42" occupancy="18.71" waitingTime="29436.00" timeLoss="30602.93" speed="0.24" speedRelative="0.03" departed="38" arrived="0" entered="7" left="10" laneChangedFrom="0" laneChangedTo="0" teleported="2" flow="31.52"/>
        <edge id="-29120445" sampledSeconds="0.00" departed="0" arrived="0" entered="0" left="0" laneChangedFrom="0" laneChangedTo="0"/>
        <edge id="-298828640#0" sampledSeconds="145.93" traveltime="6.46" overlapTraveltime="12.53" density="0.31" overlapDensity="0.32" laneDensity="0.31" occupancy="2.36" waitingTime="0.00" timeLoss="0.00" speed="22.22" speedRelative="1.00" departed="0" arrived="22" entered="22" left="0" laneChangedFrom="0" laneChangedTo="0" flow="25.15"/>
        <edge id="-298828640#1" sampledSeconds="986.18" traveltime="38.75" overlapTraveltime="44.83" density="0.31" overlapDensity="0.36" laneDensity="0.31" occupancy="4.25" waitingTime="0.00" timeLoss="0.97" speed="22.20" speedRelative="1.00" departed="0" arrived="0" entered="22" left="22" laneChangedFrom="0" laneChangedTo="0" flow="25.15"/>
        <edge id="-298828640#2" sampledSeconds="550.73" traveltime="18.91" overlapTraveltime="25.03" density="0.36" overlapDensity="0.48" laneDensity="0.36" occupancy="4.72" waitingTime="0.00" timeLoss="58.30" speed="19.87" speedRelative="0.89" departed="0" arrived="0" entered="22" left="22" laneChangedFrom="0" laneChangedTo="0" flow="25.15"/>
        <edge id="-355295621#1" sampledSeconds="66587.36" traveltime="554.07" overlapTraveltime="556.61" density="67.52" overlapDensity="67.63" laneDensity="67.52" occupancy="33.76" waitingTime="60019.57" timeLoss="63748.10" speed="0.57" speedRelative="0.04" departed="1" arrived="0" entered="148" left="104" laneChangedFrom="0" laneChangedTo="0" teleported="3" flow="137.18"/>
        <edge id="-355295621#4" sampledSeconds="18220.39" traveltime="179.52" overlapTraveltime="180.84" density="64.58" overlapDensity="64.80" laneDensity="64.58" occupancy="32.31" waitingTime="16730.00" timeLoss="17499.30" speed="0.52" speedRelative="0.04" departed="55" arrived="8" entered="55" left="90" laneChangedFrom="0" laneChangedTo="0" teleported="3" flow="115.63"/>
        <edge id="-358405944#2" sampledSeconds="20325.51" traveltime="338.43" overlapTraveltime="341.74" density="79.65" overlapDensity="79.89" laneDensity="79.65" occupancy="39.80" waitingTime="18538.00" timeLoss="19690.25" speed="0.25" speedRelative="0.03" departed="0" arrived="0" entered="78" left="64" laneChangedFrom="0" laneChangedTo="0" teleported="2" flow="68.45"/>
        <edge id="-358405944#4" sampledSeconds="37583.99" traveltime="574.20" overlapTraveltime="578.42" density="77.18" overlapDensity="77.28" laneDensity="77.18" occupancy="38.33" waitingTime="34161.00" timeLoss="36317.68" speed="0.28" speedRelative="0.03" departed="8" arrived="0" entered="76" left="64" laneChangedFrom="0" laneChangedTo="0" teleported="2" flow="74.73"/>
        <edge id="-362762664#2" sampledSeconds="20254.79" traveltime="264.24" overlapTraveltime="273.20" density="54.78" overlapDensity="55.16" laneDensity="27.39" occupancy="26.50" waitingTime="18428.00" timeLoss="19564.13" speed="0.47" speedRelative="0.03" departed="1" arrived="0" entered="81" left="67" laneChangedFrom="0" laneChangedTo="0" teleported="7" flow="87.03"/>
        <edge id="-366274823#1" sampledSeconds="0.00" departed="0" arrived="0" entered="0" left="0" laneChangedFrom="0" laneChangedTo="0"/>
        <edge id="-366274825#1" sampledSeconds="96.88" traveltime="51.35" overlapTraveltime="55.79" density="0.36" overlapDensity="0.37" laneDensity="0.36" occupancy="0.44" waitingTime="64.00" timeLoss="67.21" speed="1.70" speedRelative="0.31" departed="0" arrived="0" entered="2" left="1" laneChangedFrom="0" laneChangedTo="0" flow="2.11"/>
        <edge id="-368641560#1" sampledSeconds="15995.13" traveltime="174.17" overlapTraveltime="178.59" density="45.82" overlapDensity="46.20" laneDensity="45.82" occupancy="42.46" waitingTime="14032.00" timeLoss="14702.10" speed="0.67" speedRelative="0.08" departed="0" arrived="0" entered="105" left="94" laneChangedFrom="0" laneChangedTo="0" teleported="4" flow="104.13"/>
        <edge id="-368641580" sampledSeconds="0.00" departed="0" arrived="0" entered="0" left="0" laneChangedFrom="0" laneChangedTo="0"/>
        <edge id="-368641585#1" sampledSeconds="13002.57" traveltime="392.85" overlapTraveltime="404.82" density="48.40" overlapDensity="48.77" laneDensity="48.40" occupancy="58.23" waitingTime="10852.00" timeLoss="11622.41" speed="0.24" speedRelative="0.04" departed="18" arrived="0" entered="22" left="34" laneChangedFrom="0" laneChangedTo="0" teleported="5" flow="37.55"/>
        <edge id="-375212953#0" sampledSeconds="0.00" departed="0" arrived="0" entered="0" left="0" laneChangedFrom="0" laneChangedTo="0"/>
        <edge id="-375212953#1" sampledSeconds="0.00" departed="0" arrived="0" entered="0" left="0" laneChangedFrom="0" laneChangedTo="0"/>
        <edge id="-397056711#0" sampledSeconds="23958.30" traveltime="236.90" overlapTraveltime="254.84" density="53.50" overlapDensity="57.57" laneDensity="53.50" occupancy="40.27" waitingTime="21478.43" timeLoss="23011.09" speed="0.55" speedRelative="0.04" departed="0" arrived="14" entered="115" left="82" laneChangedFrom="0" laneChangedTo="0" teleported="1" flow="107.44"/>
        <edge id="-397056711#1" sampledSeconds="39318.01" traveltime="490.81" overlapTraveltime="483.99" density="64.18" overlapDensity="64.32" laneDensity="64.18" occupancy="34.12" waitingTime="34418.00" timeLoss="38143.13" speed="0.41" speedRelative="0.03" departed="96" arrived="0" entered="0" left="71" laneChangedFrom="0" laneChangedTo="0" teleported="4" flow="91.38"/>
        <edge id="-397056712#2" sampledSeconds="17148.72" traveltime="192.26" overlapTraveltime="196.82" density="66.35" overlapDensity="67.97" laneDensity="66.35" occupancy="33.44" waitingTime="15060.00" timeLoss="16592.45" speed="0.43" speedRelative="0.03" departed="4" arrived="0" entered="108" left="99" laneChangedFrom="0" laneChangedTo="0" flow="99.54"/>
        <edge id="-405799075#2" sampledSeconds="21481.80" traveltime="187.97" overlapTraveltime="190.94" density="112.81" overlapDensity="113.77" laneDensity="56.41" occupancy="28.22" waitingTime="18435.00" timeLoss="20565.89" speed="0.34" speedRelative="0.04" departed="40" arrived="9" entered="83" left="99" laneChangedFrom="3" laneChangedTo="3" teleported="2" flow="129.55"/>
        <edge id="-407552210#1" sampledSeconds="1427.40" traveltime="10.44" overlapTraveltime="12.41" density="13.07" overlapDensity="15.54" laneDensity="13.07" occupancy="6.69" waitingTime="0.00" timeLoss="717.44" speed="2.75" speedRelative="0.50" departed="0" arrived="0" entered="115" left="115" laneChangedFrom="0" laneChangedTo="0" flow="131.47"/>
        <edge id="-434868005" sampledSeconds="2186.22" traveltime="48.04" overlapTraveltime="66.14" density="27.71" overlapDensity="41.08" laneDensity="27.71" occupancy="16.13" waitingTime="1869.00" timeLoss="2054.32" speed="0.33" speedRelative="0.06" departed="41" arrived="1" entered="3" left="41" laneChangedFrom="0" laneChangedTo="0" flow="35.09"/>
        <edge id="-434868006#5" sampledSeconds="5696.55" traveltime="298.41" overlapTraveltime="304.09" density="7.28" overlapDensity="7.29" laneDensity="7.28" occupancy="3.64" waitingTime="4170.00" timeLoss="4811.59" speed="0.83" speedRelative="0.15" departed="35" arrived="0" entered="1" left="3" laneChangedFrom="0" laneChangedTo="0" flow="21.78"/>
        <edge id="-440227071#2" sampledSeconds="36.29" traveltime="17.68" overlapTraveltime="18.48" density="0.08" overlapDensity="0.08" laneDensity="0.08" occupancy="0.04" waitingTime="0.00" timeLoss="4.63" speed="7.74" speedRelative="0.93" departed="1" arrived="0" entered="1" left="2" laneChangedFrom="0" laneChangedTo="0" flow="2.24"/>
        <edge id="-449253146" sampledSeconds="13381.93" traveltime="144.79" overlapTraveltime="152.44" density="72.56" overlapDensity="76.10" laneDensity="72.56" occupancy="36.17" waitingTime="11059.00" timeLoss="12732.22" speed="0.40" speedRelative="0.05" departed="1" arrived="0" entered="91" left="84" laneChangedFrom="0" laneChangedTo="0" flow="100.75"/>
        <edge id="-475954965" sampledSeconds="0.00" departed="0" arrived="0" entered="0" left="0" laneChangedFrom="0" laneChangedTo="0"/>
        <edge id="-475954975#0" sampledSeconds="0.00" departed="0" arrived="0" entered="0" left="0" laneChangedFrom="0" laneChangedTo="0"/>
        <edge id="-475954975#1" sampledSeconds="0.00" departed="0" arrived="0" entered="0" left="0" laneChangedFrom="0" laneChangedTo="0"/>
        <edge id="-475954975#2" sampledSeconds="0.00" departed="0" arrived="0" entered="0" left="0" laneChangedFrom="0" laneChangedTo="0"/>
        <edge id="-475954975#3" sampledSeconds="0.00" departed="0" arrived="0" entered="0" left="0" laneChangedFrom="0" laneChangedTo="0"/>
        <edge id="-475956018" sampledSeconds="0.00" departed="0" arrived="0" entered="0" left="0" laneChangedFrom="0" laneChangedTo="0"/>
        <edge id="-475956021#0" sampledSeconds="0.00" departed="0" arrived="0" entered="0" left="0" laneChangedFrom="0" laneChangedTo="0"/>
        <edge id="-475956021#1" sampledSeconds="0.00" departed="0" arrived="0" entered="0" left="0" laneChangedFrom="0" laneChangedTo="0"/>
        <edge id="-475956021#2" sampledSeconds="0.00" departed="0" arrived="0" entered="0" left="0" laneChangedFrom="0" laneChangedTo="0"/>
        <edge id="-475956021#3" sampledSeconds="0.00" departed="0" arrived="0" entered="0" left="0" laneChangedFrom="0" laneChangedTo="0"/>
        <edge id="-61292939#1" sampledSeconds="630.79" traveltime="11.53" overlapTraveltime="13.93" density="4.29" overlapDensity="5.18" laneDensity="4.29" occupancy="5.56" waitingTime="326.00" timeLoss="453.84" speed="3.64" speedRelative="0.26" departed="0" arrived="0" entered="46" left="45" laneChangedFrom="0" laneChangedTo="0" flow="51.88"/>
        <edge id="-61293073#1" sampledSeconds="0.00" departed="0" arrived="0" entered="0" left="0" laneChangedFrom="0" laneChangedTo="0"/>
        <edge id="-61293490" sampledSeconds="481.98" traveltime="3.76" overlapTraveltime="5.24" density="27.18" overlapDensity="37.89" laneDensity="27.18" occupancy="11.49" waitingTime="292.00" timeLoss="375.73" speed="3.06" speedRelative="0.22" departed="0" arrived="0" entered="96" left="96" laneChangedFrom="0" laneChangedTo="0" flow="105.18"/>
        <edge id="-61293493" sampledSeconds="423.20" traveltime="7.79" overlapTraveltime="9.41" density="19.02" overlapDensity="22.97" laneDensity="19.02" occupancy="11.93" waitingTime="304.00" timeLoss="365.38" speed="1.90" speedRelative="0.14" departed="0" arrived="0" entered="47" left="47" laneChangedFrom="0" laneChangedTo="0" teleported="1" flow="51.41"/>
        <edge id="-61293500" sampledSeconds="0.00" departed="0" arrived="0" entered="0" left="0" laneChangedFrom="0" laneChangedTo="0"/>
        <edge id="-61293524" sampledSeconds="0.00" departed="0" arrived="0" entered="0" left="0" laneChangedFrom="0" laneChangedTo="0"/>
        <edge id="-61295643#3" sampledSeconds="60196.59" traveltime="1760.89" overlapTraveltime="1780.38" density="71.45" overlapDensity="71.46" laneDensity="71.45" occupancy="35.72" waitingTime="58138.00" timeLoss="59102.87" speed="0.15" speedRelative="0.02" departed="2" arrived="7" entered="60" left="18" laneChangedFrom="0" laneChangedTo="0" teleported="4" flow="39.07"/>
        <edge id="-639948534#1" sampledSeconds="0.00" departed="0" arrived="0" entered="0" left="0" laneChangedFrom="0" laneChangedTo="0"/>
        <edge id="-660939283#1" sampledSeconds="7220.28" traveltime="127.20" overlapTraveltime="126.71" density="67.15" overlapDensity="67.78" laneDensity="67.15" occupancy="33.73" waitingTime="6601.00" timeLoss="6946.87" speed="0.31" speedRelative="0.04" departed="68" arrived="0" entered="0" left="64" laneChangedFrom="0" laneChangedTo="0" teleported="2" flow="64.30"/>