<?xml version="1.0" encoding="UTF-8"?>

<!-- generated on 2026-03-15T10:54:25.753946+01:00 by Eclipse SUMO GUI 1.26.0
<sumoConfiguration xmlns:xsi="http://www.w3.org/2001/XMLSchema-instance" xsi:noNamespaceSchemaLocation="http://sumo.dlr.de/xsd/sumoConfiguration.xsd">

    <input>
        <net-file value="C:\Users\breje\Desktop\projektKoncowy\simulation\network/osm.net.xml"/>
        <route-files value="C:\Users\breje\Desktop\projektKoncowy\simulation\demand/netedit_cfg.rou.xml,C:\Users\breje\Desktop\projektKoncowy\simulation\demand/osm_pt.rou.xml,C:\Users\breje\Desktop\projektKoncowy\simulation\demand/cars_ev.rou.xml,C:\Users\breje\Desktop\projektKoncowy\simulation\demand/cars.rou.xml,C:\Users\breje\Desktop\projektKoncowy\simulation\demand/emergency.rou.xml,C:\Users\breje\Desktop\projektKoncowy\simulation\demand/bus.rou.xml,C:\Users\breje\Desktop\projektKoncowy\simulation\demand/truck.rou.xml"/>
        <additional-files value="C:\Users\breje\Desktop\projektKoncowy\simulation\osm.add.xml"/>
    </input>

    <output>
        <summary-output value="C:\Users\breje\Desktop\projektKoncowy\simulation\results/stats.xml"/>
        <tripinfo-output value="C:\Users\breje\Desktop\projektKoncowy\simulation\results/tripinfos.xml"/>
        <stop-output value="C:\Users\breje\Desktop\projektKoncowy\simulation\results/stopinfos.xml"/>
    </output>

    <processing>
        <lateral-resolution value="0.4"/>
        <time-to-teleport value="-1"/>
    </processing>

</sumoConfiguration>
-->

<tripinfos xmlns:xsi="http://www.w3.org/2001/XMLSchema-instance" xsi:noNamespaceSchemaLocation="http://sumo.dlr.de/xsd/tripinfo_file.xsd">
    <tripinfo id="car_12" depart="18.00" departLane="961539471_0" departPos="5.10" departPosLat="0.00" departSpeed="0.00" departDelay="0.00" arrival="63.00" arrivalLane="224821292#0_0" arrivalPos="281.15" arrivalPosLat="0.00" arrivalSpeed="13.39" duration="45.00" routeLength="540.21" waitingTime="0.00" waitingCount="0" stopTime="0.00" timeLoss="4.58" rerouteNo="0" devices="tripinfo_car_12" vType="car" speedFactor="0.97" vaporized=""/>
    <tripinfo id="car_4" depart="6.00" departLane="1362017841_0" departPos="5.10" departPosLat="0.00" departSpeed="0.00" departDelay="0.00" arrival="64.00" arrivalLane="1147624737#1_0" arrivalPos="232.89" arrivalPosLat="0.00" arrivalSpeed="14.87" duration="58.00" routeLength="723.42" waitingTime="0.00" waitingCount="0" stopTime="0.00" timeLoss="8.91" rerouteNo="0" devices="tripinfo_car_4" vType="car" speedFactor="1.10" vaporized=""/>
    <tripinfo id="car_3" depart="5.00" departLane="961539471_0" departPos="5.10" departPosLat="0.00" departSpeed="0.00" departDelay="0.50" arrival="77.00" arrivalLane="-407552210#1_0" arrivalPos="26.49" arrivalPosLat="0.00" arrivalSpeed="5.02" duration="72.00" routeLength="777.91" waitingTime="1.00" waitingCount="1" stopTime="0.00" timeLoss="12.26" rerouteNo="0" devices="tripinfo_car_3" vType="car" speedFactor="1.02" vaporized=""/>
    <tripinfo id="car_7" depart="13.00" departLane="236811148_0" departPos="5.10" departPosLat="0.00" departSpeed="0.00" departDelay="2.50" arrival="77.00" arrivalLane="1147624737#1_0" arrivalPos="232.89" arrivalPosLat="0.00" arrivalSpeed="13.26" duration="64.00" routeLength="764.50" waitingTime="0.00" waitingCount="0" stopTime="0.00" timeLoss="8.24" rerouteNo="0" devices="tripinfo_car_7" vType="car" speedFactor="1.00" vaporized=""/>
    <tripinfo id="car_ev_7" depart="28.00" departLane="236811148_0" departPos="4.90" departPosLat="0.00" departSpeed="0.00" departDelay="0.00" arrival="84.00" arrivalLane="1147624737#1_0" arrivalPos="232.89" arrivalPosLat="0.00" arrivalSpeed="14.64" duration="56.00" routeLength="764.70" waitingTime="0.00" waitingCount="0" stopTime="0.00" timeLoss="4.81" rerouteNo="0" devices="tripinfo_car_ev_7" vType="car_ev" speedFactor="1.09" vaporized=""/>
    <tripinfo id="car_11" depart="17.00" departLane="277203721_0" departPos="5.10" departPosLat="0.00" departSpeed="0.00" departDelay="0.50" arrival="89.00" arrivalLane="200568452#0_0" arrivalPos="720.04" arrivalPosLat="0.00" arrivalSpeed="13.43" duration="72.00" routeLength="924.06" waitingTime="0.00" waitingCount="0" stopTime="0.00" timeLoss="6.70" rerouteNo="0" devices="tripinfo_car_11" vType="car" speedFactor="1.02" vaporized=""/>
    <tripinfo id="car_ev_3" depart="12.00" departLane="961539471_0" departPos="4.90" departPosLat="0.00" departSpeed="0.00" departDelay="0.00" arrival="90.00" arrivalLane="-407552210#1_0" arrivalPos="26.49" arrivalPosLat="0.00" arrivalSpeed="4.52" duration="78.00" routeLength="778.11" waitingTime="0.00" waitingCount="0" stopTime="0.00" timeLoss="9.90" rerouteNo="0" devices="tripinfo_car_ev_3" vType="car_ev" speedFactor="0.89" vaporized=""/>
    <tripinfo id="car_35" depart="53.00" departLane="1232799371#2_0" departPos="5.10" departPosLat="0.00" departSpeed="0.00" departDelay="0.50" arrival="102.00" arrivalLane="236809165_0" arrivalPos="92.40" arrivalPosLat="0.00" arrivalSpeed="13.73" duration="49.00" routeLength="631.50" waitingTime="0.00" waitingCount="0" stopTime="0.00" timeLoss="5.00" rerouteNo="0" devices="tripinfo_car_35" vType="car" speedFactor="1.03" vaporized=""/>
    <tripinfo id="car_1" depart="2.00" departLane="200568455#0_0" departPos="5.10" departPosLat="0.00" departSpeed="0.00" departDelay="0.50" arrival="103.00" arrivalLane="1147624737#1_0" arrivalPos="232.89" arrivalPosLat="0.00" arrivalSpeed="14.58" duration="101.00" routeLength="1362.69" waitingTime="0.00" waitingCount="0" stopTime="0.00" timeLoss="8.44" rerouteNo="0" devices="tripinfo_car_1" vType="car" speedFactor="1.08" vaporized=""/>
    <tripinfo id="car_ev_11" depart="44.00" departLane="277203721_0" departPos="4.90" departPosLat="0.00" departSpeed="0.00" departDelay="0.00" arrival="109.00" arrivalLane="200568452#0_0" arrivalPos="720.04" arrivalPosLat="0.00" arrivalSpeed="14.56" duration="65.00" routeLength="924.26" waitingTime="0.00" waitingCount="0" stopTime="0.00" timeLoss="4.89" rerouteNo="0" devices="tripinfo_car_ev_11" vType="car_ev" speedFactor="1.12" vaporized=""/>
    <tripinfo id="car_42" depart="63.00" departLane="-1348067248_0" departPos="5.10" departPosLat="0.00" departSpeed="0.00" departDelay="0.00" arrival="115.00" arrivalLane="1362020490_0" arrivalPos="77.99" arrivalPosLat="0.00" arrivalSpeed="14.02" duration="52.00" routeLength="361.63" waitingTime="16.00" waitingCount="1" stopTime="0.00" timeLoss="24.39" rerouteNo="0" devices="tripinfo_car_42" vType="car" speedFactor="1.04" vaporized=""/>
    <tripinfo id="car_71" depart="112.00" departLane="961539471_0" departPos="5.10" departPosLat="0.00" departSpeed="0.00" departDelay="5.50" arrival="118.00" arrivalLane="961539472_0" arrivalPos="10.88" arrivalPosLat="0.00" arrivalSpeed="10.88" duration="6.00" routeLength="28.58" waitingTime="0.00" waitingCount="0" stopTime="0.00" timeLoss="3.55" rerouteNo="0" devices="tripinfo_car_71" vType="car" speedFactor="1.10" vaporized=""/>
    <tripinfo id="car_ev_4" depart="16.00" departLane="1362017841_0" departPos="4.90" departPosLat="0.00" departSpeed="0.00" departDelay="0.00" arrival="120.00" arrivalLane="1147624737#1_0" arrivalPos="232.89" arrivalPosLat="0.00" arrivalSpeed="12.46" duration="104.00" routeLength="727.35" waitingTime="38.00" waitingCount="1" stopTime="0.00" timeLoss="47.77" rerouteNo="0" devices="tripinfo_car_ev_4" vType="car_ev" speedFactor="0.94" vaporized=""/>
    <tripinfo id="bus_3" depart="45.00" departLane="1362017841_0" departPos="12.10" departPosLat="0.00" departSpeed="0.00" departDelay="0.00" arrival="121.00" arrivalLane="1147624737#1_1" arrivalPos="232.89" arrivalPosLat="0.00" arrivalSpeed="13.83" duration="76.00" routeLength="716.42" waitingTime="6.00" waitingCount="1" stopTime="0.00" timeLoss="22.63" rerouteNo="0" devices="tripinfo_bus_3" vType="bus" speedFactor="1.00" vaporized=""/>
    <tripinfo id="car_16" depart="24.00" departLane="29114711#0.184_0" departPos="5.10" departPosLat="0.00" departSpeed="0.00" departDelay="0.00" arrival="140.00" arrivalLane="1362020490_1" arrivalPos="77.99" arrivalPosLat="0.00" arrivalSpeed="13.03" duration="116.00" routeLength="1439.26" waitingTime="0.00" waitingCount="0" stopTime="0.00" timeLoss="10.23" rerouteNo="0" devices="tripinfo_car_16" vType="car" speedFactor="0.99" vaporized=""/>
    <tripinfo id="car_37" depart="58.00" departLane="161297934_0" departPos="5.10" departPosLat="0.00" departSpeed="0.00" departDelay="2.50" arrival="140.00" arrivalLane="169400609#0_1" arrivalPos="35.34" arrivalPosLat="0.00" arrivalSpeed="13.54" duration="82.00" routeLength="685.64" waitingTime="12.00" waitingCount="1" stopTime="0.00" timeLoss="31.15" rerouteNo="0" devices="tripinfo_car_37" vType="car" speedFactor="1.02" vaporized=""/>
    <tripinfo id="car_20" depart="30.00" departLane="187938713#0_0" departPos="5.10" departPosLat="0.00" departSpeed="0.00" departDelay="0.00" arrival="141.00" arrivalLane="1362020490_0" arrivalPos="77.99" arrivalPosLat="0.00" arrivalSpeed="12.64" duration="111.00" routeLength="532.69" waitingTime="51.00" waitingCount="3" stopTime="0.00" timeLoss="68.42" rerouteNo="0" devices="tripinfo_car_20" vType="car" speedFactor="0.91" vaporized=""/>
    <tripinfo id="car_8" depart="14.00" departLane="961539471_0" departPos="5.10" departPosLat="0.00" departSpeed="0.00" departDelay="2.00" arrival="143.00" arrivalLane="1362020490_0" arrivalPos="77.99" arrivalPosLat="0.00" arrivalSpeed="11.59" duration="129.00" routeLength="722.31" waitingTime="50.00" waitingCount="2" stopTime="0.00" timeLoss="70.10" rerouteNo="0" devices="tripinfo_car_8" vType="car" speedFactor="0.90" vaporized=""/>
    <tripinfo id="car_ev_20" depart="80.00" departLane="187938713#0_0" departPos="4.90" departPosLat="0.00" departSpeed="0.00" departDelay="0.00" arrival="145.00" arrivalLane="1362020490_0" arrivalPos="77.99" arrivalPosLat="0.00" arrivalSpeed="12.72" duration="65.00" routeLength="532.89" waitingTime="12.00" waitingCount="1" stopTime="0.00" timeLoss="24.73" rerouteNo="0" devices="tripinfo_car_ev_20" vType="car_ev" speedFactor="0.97" vaporized=""/>
    <tripinfo id="car_49" depart="74.00" departLane="277203721_0" departPos="5.10" departPosLat="0.00" departSpeed="0.00" departDelay="0.50" arrival="153.00" arrivalLane="200568452#0_0" arrivalPos="720.04" arrivalPosLat="0.00" arrivalSpeed="11.79" duration="79.00" routeLength="924.06" waitingTime="0.00" waitingCount="0" stopTime="0.00" timeLoss="6.13" rerouteNo="0" devices="tripinfo_car_49" vType="car" speedFactor="0.92" vaporized=""/>
    <tripinfo id="car_53" depart="80.00" departLane="277203721_0" departPos="5.10" departPosLat="0.00" departSpeed="0.00" departDelay="0.50" arrival="153.00" arrivalLane="200568452#0_1" arrivalPos="720.04" arrivalPosLat="0.00" arrivalSpeed="13.49" duration="73.00" routeLength="924.06" waitingTime="0.00" waitingCount="0" stopTime="0.00" timeLoss="6.82" rerouteNo="0" devices="tripinfo_car_53" vType="car" speedFactor="1.01" vaporized=""/>
    <tripinfo id="car_31" depart="47.00" departLane="161297934_0" departPos="5.10" departPosLat="0.00" departSpeed="0.00" departDelay="0.50" arrival="158.00" arrivalLane="-1316855122#3_0" arrivalPos="353.66" arrivalPosLat="0.00" arrivalSpeed="8.08" duration="111.00" routeLength="980.06" waitingTime="0.00" waitingCount="0" stopTime="0.00" timeLoss="12.80" rerouteNo="0" devices="tripinfo_car_31" vType="car" speedFactor="1.03" vaporized=""/>
    <tripinfo id="car_ev_9" depart="36.00" departLane="161297934_0" departPos="4.90" departPosLat="0.00" departSpeed="0.00" departDelay="0.00" arrival="160.00" arrivalLane="-407552210#1_0" arrivalPos="26.49" arrivalPosLat="0.00" arrivalSpeed="4.87" duration="124.00" routeLength="1157.50" waitingTime="23.00" waitingCount="1" stopTime="0.00" timeLoss="40.35" rerouteNo="0" devices="tripinfo_car_ev_9" vType="car_ev" speedFactor="1.05" vaporized=""/>
    <tripinfo id="car_62" depart="93.00" departLane="277203721_0" departPos="5.10" departPosLat="0.00" departSpeed="0.00" departDelay="0.00" arrival="161.00" arrivalLane="200568452#0_0" arrivalPos="720.04" arrivalPosLat="0.00" arrivalSpeed="14.57" duration="68.00" routeLength="924.06" waitingTime="0.00" waitingCount="0" stopTime="0.00" timeLoss="5.96" rerouteNo="0" devices="tripinfo_car_62" vType="car" speedFactor="1.07" vaporized=""/>
    <tripinfo id="car_43" depart="65.00" departLane="1271126935_0" departPos="5.10" departPosLat="0.00" departSpeed="0.00" departDelay="0.50" arrival="162.00" arrivalLane="430532795_0" arrivalPos="303.61" arrivalPosLat="0.00" arrivalSpeed="13.06" duration="97.00" routeLength="1113.23" waitingTime="5.00" waitingCount="1" stopTime="0.00" timeLoss="15.54" rerouteNo="0" devices="tripinfo_car_43" vType="car" speedFactor="1.01" vaporized=""/>
    <tripinfo id="car_5" depart="8.00" departLane="961539471_0" departPos="5.10" departPosLat="0.00" departSpeed="0.00" departDelay="0.50" arrival="163.00" arrivalLane="-1316855122#3_0" arrivalPos="353.66" arrivalPosLat="0.00" arrivalSpeed="8.06" duration="155.00" routeLength="959.77" waitingTime="39.00" waitingCount="1" stopTime="0.00" timeLoss="58.12" rerouteNo="0" devices="tripinfo_car_5" vType="car" speedFactor="1.00" vaporized=""/>
    <tripinfo id="car_9" depart="14.00" departLane="161297934_0" departPos="5.10" departPosLat="0.00" departSpeed="0.00" departDelay="0.50" arrival="163.00" arrivalLane="-407552210#1_0" arrivalPos="26.49" arrivalPosLat="0.00" arrivalSpeed="6.29" duration="149.00" routeLength="1157.30" waitingTime="41.00" waitingCount="2" stopTime="0.00" timeLoss="71.40" rerouteNo="0" devices="tripinfo_car_9" vType="car" speedFactor="1.14" vaporized=""/>
    <tripinfo id="car_89" depart="134.00" departLane="407552210#0_0" departPos="5.10" departPosLat="0.00" departSpeed="0.00" departDelay="0.50" arrival="164.00" arrivalLane="430532795_1" arrivalPos="303.61" arrivalPosLat="0.00" arrivalSpeed="14.00" duration="30.00" routeLength="335.03" waitingTime="0.00" waitingCount="0" stopTime="0.00" timeLoss="4.48" rerouteNo="0" devices="tripinfo_car_89" vType="car" speedFactor="1.07" vaporized=""/>
    <tripinfo id="car_29" depart="44.00" departLane="29114711#0.184_0" departPos="5.10" departPosLat="0.00" departSpeed="0.00" departDelay="0.50" arrival="167.00" arrivalLane="1147624737#1_0" arrivalPos="232.89" arrivalPosLat="0.00" arrivalSpeed="12.11" duration="123.00" routeLength="1471.02" waitingTime="0.00" waitingCount="0" stopTime="0.00" timeLoss="10.93" rerouteNo="0" devices="tripinfo_car_29" vType="car" speedFactor="0.96" vaporized=""/>
    <tripinfo id="car_2" depart="3.00" departLane="61293002_0" departPos="5.10" departPosLat="0.00" departSpeed="0.00" departDelay="0.00" arrival="169.00" arrivalLane="236809165_0" arrivalPos="92.40" arrivalPosLat="0.00" arrivalSpeed="15.28" duration="166.00" routeLength="1877.77" waitingTime="3.00" waitingCount="1" stopTime="0.00" timeLoss="23.67" rerouteNo="0" devices="tripinfo_car_2" vType="car" speedFactor="1.17" vaporized=""/>
    <tripinfo id="car_14" depart="21.00" departLane="161297934_0" departPos="5.10" departPosLat="0.00" departSpeed="0.00" departDelay="0.00" arrival="172.00" arrivalLane="1147624737#1_0" arrivalPos="232.89" arrivalPosLat="0.00" arrivalSpeed="15.13" duration="151.00" routeLength="1173.96" waitingTime="49.00" waitingCount="3" stopTime="0.00" timeLoss="74.97" rerouteNo="0" devices="tripinfo_car_14" vType="car" speedFactor="1.12" vaporized=""/>
    <tripinfo id="car_15" depart="24.00" departLane="161297934_0" departPos="5.10" departPosLat="0.00" departSpeed="0.00" departDelay="1.50" arrival="177.00" arrivalLane="1147624737#1_1" arrivalPos="232.89" arrivalPosLat="0.00" arrivalSpeed="13.94" duration="153.00" routeLength="1173.96" waitingTime="42.00" waitingCount="3" stopTime="0.00" timeLoss="69.29" rerouteNo="0" devices="tripinfo_car_15" vType="car" speedFactor="1.02" vaporized=""/>
    <tripinfo id="car_ev_1" depart="5.00" departLane="200568455#0_0" departPos="4.90" departPosLat="0.00" departSpeed="0.00" departDelay="1.00" arrival="178.00" arrivalLane="1147624737#1_0" arrivalPos="232.89" arrivalPosLat="0.00" arrivalSpeed="12.95" duration="173.00" routeLength="1362.89" waitingTime="50.00" waitingCount="2" stopTime="0.00" timeLoss="67.26" rerouteNo="0" devices="tripinfo_car_ev_1" vType="car_ev" speedFactor="0.94" vaporized=""/>
    <tripinfo id="bus_1" depart="15.00" departLane="200568455#0_0" departPos="12.10" departPosLat="0.00" departSpeed="0.00" departDelay="0.00" arrival="179.00" arrivalLane="1147624737#1_1" arrivalPos="232.89" arrivalPosLat="0.00" arrivalSpeed="13.86" duration="164.00" routeLength="1355.69" waitingTime="38.00" waitingCount="2" stopTime="0.00" timeLoss="65.24" rerouteNo="0" devices="tripinfo_bus_1" vType="bus" speedFactor="1.00" vaporized=""/>
    <tripinfo id="car_ev_2" depart="8.00" departLane="61293002_0" departPos="4.90" departPosLat="0.00" departSpeed="0.00" departDelay="0.00" arrival="182.00" arrivalLane="236809165_0" arrivalPos="92.40" arrivalPosLat="0.00" arrivalSpeed="14.47" duration="174.00" routeLength="1883.17" waitingTime="0.00" waitingCount="0" stopTime="0.00" timeLoss="14.67" rerouteNo="0" devices="tripinfo_car_ev_2" vType="car_ev" speedFactor="1.05" vaporized=""/>
    <tripinfo id="car_ev_15" depart="61.00" departLane="161297934_0" departPos="4.90" departPosLat="0.00" departSpeed="0.00" departDelay="1.00" arrival="183.00" arrivalLane="1147624737#1_1" arrivalPos="232.89" arrivalPosLat="0.00" arrivalSpeed="12.56" duration="122.00" routeLength="1174.16" waitingTime="11.00" waitingCount="1" stopTime="0.00" timeLoss="31.33" rerouteNo="0" devices="tripinfo_car_ev_15" vType="car_ev" speedFactor="0.94" vaporized=""/>
    <tripinfo id="car_ev_16" depart="65.00" departLane="29114711#0.184_0" departPos="4.90" departPosLat="0.00" departSpeed="0.00" departDelay="1.00" arrival="185.00" arrivalLane="1362020490_1" arrivalPos="77.99" arrivalPosLat="0.00" arrivalSpeed="12.22" duration="120.00" routeLength="1439.46" waitingTime="0.00" waitingCount="0" stopTime="0.00" timeLoss="8.40" rerouteNo="0" devices="tripinfo_car_ev_16" vType="car_ev" speedFactor="0.94" vaporized=""/>
    <tripinfo id="car_33" depart="50.00" departLane="161297934_0" departPos="5.10" departPosLat="0.00" departSpeed="0.00" departDelay="0.50" arrival="185.00" arrivalLane="1362020490_0" arrivalPos="77.99" arrivalPosLat="0.00" arrivalSpeed="13.41" duration="135.00" routeLength="1086.14" waitingTime="34.00" waitingCount="2" stopTime="0.00" timeLoss="56.53" rerouteNo="0" devices="tripinfo_car_33" vType="car" speedFactor="1.01" vaporized=""/>
    <tripinfo id="car_54" depart="81.00" departLane="161297934_0" departPos="5.10" departPosLat="0.00" departSpeed="0.00" departDelay="0.00" arrival="186.00" arrivalLane="1147624737#1_1" arrivalPos="232.89" arrivalPosLat="0.00" arrivalSpeed="12.05" duration="105.00" routeLength="1173.96" waitingTime="0.00" waitingCount="0" stopTime="0.00" timeLoss="11.22" rerouteNo="0" devices="tripinfo_car_54" vType="car" speedFactor="0.91" vaporized=""/>
    <tripinfo id="car_ev_14" depart="56.00" departLane="161297934_0" departPos="4.90" departPosLat="0.00" departSpeed="0.00" departDelay="0.00" arrival="187.00" arrivalLane="1147624737#1_0" arrivalPos="232.89" arrivalPosLat="0.00" arrivalSpeed="11.57" duration="131.00" routeLength="1174.16" waitingTime="15.00" waitingCount="1" stopTime="0.00" timeLoss="34.17" rerouteNo="0" devices="tripinfo_car_ev_14" vType="car_ev" speedFactor="0.88" vaporized=""/>
    <tripinfo id="car_ev_35" depart="140.00" departLane="1232799371#2_0" departPos="4.90" departPosLat="0.00" departSpeed="0.00" departDelay="0.00" arrival="190.00" arrivalLane="236809165_0" arrivalPos="92.40" arrivalPosLat="0.00" arrivalSpeed="13.06" duration="50.00" routeLength="631.70" waitingTime="0.00" waitingCount="0" stopTime="0.00" timeLoss="4.54" rerouteNo="0" devices="tripinfo_car_ev_35" vType="car_ev" speedFactor="1.02" vaporized=""/>
    <tripinfo id="car_79" depart="119.00" departLane="277203721_0" departPos="5.10" departPosLat="0.00" departSpeed="0.00" departDelay="0.50" arrival="190.00" arrivalLane="200568452#0_0" arrivalPos="720.04" arrivalPosLat="0.00" arrivalSpeed="13.66" duration="71.00" routeLength="924.06" waitingTime="0.00" waitingCount="0" stopTime="0.00" timeLoss="5.70" rerouteNo="0" devices="tripinfo_car_79" vType="car" speedFactor="1.03" vaporized=""/>
    <tripinfo id="car_56" depart="84.00" departLane="161297934_0" departPos="5.10" departPosLat="0.00" departSpeed="0.00" departDelay="0.00" arrival="195.00" arrivalLane="236809165_0" arrivalPos="92.40" arrivalPosLat="0.00" arrivalSpeed="14.23" duration="111.00" routeLength="1497.99" waitingTime="0.00" waitingCount="0" stopTime="0.00" timeLoss="11.47" rerouteNo="0" devices="tripinfo_car_56" vType="car" speedFactor="1.10" vaporized=""/>
    <tripinfo id="car_47" depart="71.00" departLane="161297934_0" departPos="5.10" departPosLat="0.00" departSpeed="0.00" departDelay="0.50" arrival="203.00" arrivalLane="236809165_0" arrivalPos="92.40" arrivalPosLat="0.00" arrivalSpeed="11.81" duration="132.00" routeLength="1492.79" waitingTime="0.00" waitingCount="0" stopTime="0.00" timeLoss="10.89" rerouteNo="0" devices="tripinfo_car_47" vType="car" speedFactor="0.89" vaporized=""/>
    <tripinfo id="car_ev_42" depart="168.00" departLane="-1348067248_0" departPos="4.90" departPosLat="0.00" departSpeed="0.00" departDelay="0.00" arrival="206.00" arrivalLane="1362020490_0" arrivalPos="77.99" arrivalPosLat="0.00" arrivalSpeed="14.37" duration="38.00" routeLength="361.83" waitingTime="3.00" waitingCount="1" stopTime="0.00" timeLoss="11.43" rerouteNo="0" devices="tripinfo_car_ev_42" vType="car_ev" speedFactor="1.09" vaporized=""/>
    <tripinfo id="bus_9" depart="135.00" departLane="277203721_0" departPos="12.10" departPosLat="0.00" departSpeed="0.00" departDelay="0.00" arrival="209.00" arrivalLane="200568452#0_0" arrivalPos="720.04" arrivalPosLat="0.00" arrivalSpeed="13.85" duration="74.00" routeLength="917.06" waitingTime="0.00" waitingCount="0" stopTime="0.00" timeLoss="7.54" rerouteNo="0" devices="tripinfo_bus_9" vType="bus" speedFactor="1.00" vaporized=""/>
    <tripinfo id="car_ev_12" depart="48.00" departLane="961539471_0" departPos="4.90" departPosLat="0.00" departSpeed="0.00" departDelay="0.00" arrival="212.00" arrivalLane="224821292#0_0" arrivalPos="281.15" arrivalPosLat="0.00" arrivalSpeed="13.58" duration="164.00" routeLength="540.41" waitingTime="115.00" waitingCount="1" stopTime="0.00" timeLoss="123.78" rerouteNo="0" devices="tripinfo_car_ev_12" vType="car_ev" speedFactor="0.99" vaporized=""/>
    <tripinfo id="car_ev_5" depart="21.00" departLane="961539471_0" departPos="4.90" departPosLat="0.00" departSpeed="0.00" departDelay="1.00" arrival="213.00" arrivalLane="-1316855122#3_0" arrivalPos="353.66" arrivalPosLat="0.00" arrivalSpeed="6.24" duration="192.00" routeLength="959.97" waitingTime="58.00" waitingCount="2" stopTime="0.00" timeLoss="79.36" rerouteNo="0" devices="tripinfo_car_ev_5" vType="car_ev" speedFactor="0.86" vaporized=""/>
    <tripinfo id="car_24" depart="36.00" departLane="200568455#0_0" departPos="5.10" departPosLat="0.00" departSpeed="0.00" departDelay="0.00" arrival="215.00" arrivalLane="-1316855122#3_0" arrivalPos="353.66" arrivalPosLat="0.00" arrivalSpeed="7.58" duration="179.00" routeLength="1290.85" waitingTime="25.00" waitingCount="2" stopTime="0.00" timeLoss="61.48" rerouteNo="0" devices="tripinfo_car_24" vType="car" speedFactor="1.02" vaporized=""/>
    <tripinfo id="emergency_0" depart="5.00" departLane="29114711#0.184_0" departPos="5.60" departPosLat="0.00" departSpeed="0.00" departDelay="5.00" arrival="217.00" arrivalLane="-1316855122#3_0" arrivalPos="353.66" arrivalPosLat="0.00" arrivalSpeed="12.21" duration="212.00" routeLength="1691.29" waitingTime="87.00" waitingCount="1" stopTime="0.00" timeLoss="112.61" rerouteNo="0" devices="tripinfo_emergency_0" vType="emergency" speedFactor="1.50" vaporized=""/>
    <tripinfo id="car_41" depart="62.00" departLane="29114711#0.184_0" departPos="5.10" departPosLat="0.00" departSpeed="0.00" departDelay="0.50" arrival="217.00" arrivalLane="1147624737#1_0" arrivalPos="232.89" arrivalPosLat="0.00" arrivalSpeed="12.91" duration="155.00" routeLength="1474.75" waitingTime="33.00" waitingCount="1" stopTime="0.00" timeLoss="48.36" rerouteNo="0" devices="tripinfo_car_41" vType="car" speedFactor="1.00" vaporized=""/>
    <tripinfo id="truck_3" depart="123.00" departLane="1362017841_0" departPos="12.10" departPosLat="0.00" departSpeed="0.00" departDelay="3.00" arrival="219.00" arrivalLane="1147624737#1_0" arrivalPos="232.89" arrivalPosLat="0.00" arrivalSpeed="13.89" duration="96.00" routeLength="716.42" waitingTime="24.00" waitingCount="1" stopTime="0.00" timeLoss="43.91" rerouteNo="0" devices="tripinfo_truck_3" vType="truck" speedFactor="1.02" vaporized=""/>
    <tripinfo id="car_ev_17" depart="68.00" departLane="27348585#0_0" departPos="4.90" departPosLat="0.00" departSpeed="0.00" departDelay="0.00" arrival="221.00" arrivalLane="1147624737#1_0" arrivalPos="232.89" arrivalPosLat="0.00" arrivalSpeed="15.01" duration="153.00" routeLength="1466.86" waitingTime="21.00" waitingCount="1" stopTime="0.00" timeLoss="44.57" rerouteNo="0" devices="tripinfo_car_ev_17" vType="car_ev" speedFactor="1.16" vaporized=""/>
    <tripinfo id="bus_2" depart="30.00" departLane="61293002_0" departPos="12.10" departPosLat="0.00" departSpeed="0.00" departDelay="0.00" arrival="221.00" arrivalLane="236809165_0" arrivalPos="92.40" arrivalPosLat="0.00" arrivalSpeed="13.52" duration="191.00" routeLength="1875.97" waitingTime="5.00" waitingCount="1" stopTime="0.00" timeLoss="24.74" rerouteNo="0" devices="tripinfo_bus_2" vType="bus" speedFactor="1.00" vaporized=""/>
    <tripinfo id="car_ev_31" depart="124.00" departLane="161297934_0" departPos="4.90" departPosLat="0.00" departSpeed="0.00" departDelay="0.00" arrival="223.00" arrivalLane="-1316855122#3_0" arrivalPos="353.66" arrivalPosLat="0.00" arrivalSpeed="9.08" duration="99.00" routeLength="980.26" waitingTime="0.00" waitingCount="0" stopTime="0.00" timeLoss="10.84" rerouteNo="0" devices="tripinfo_car_ev_31" vType="car_ev" speedFactor="1.15" vaporized=""/>
    <tripinfo id="car_34" depart="54.00" departLane="961539471_0" departPos="5.10" departPosLat="0.00" departSpeed="0.00" departDelay="3.00" arrival="225.00" arrivalLane="430532793.85.34.10_1" arrivalPos="14.89" arrivalPosLat="0.00" arrivalSpeed="14.76" duration="171.00" routeLength="742.47" waitingTime="110.00" waitingCount="1" stopTime="0.00" timeLoss="121.26" rerouteNo="0" devices="tripinfo_car_34" vType="car" speedFactor="1.09" vaporized=""/>
    <tripinfo id="car_74" depart="111.00" departLane="161297934_0" departPos="5.10" departPosLat="0.00" departSpeed="0.00" departDelay="0.00" arrival="226.00" arrivalLane="1147624737#1_0" arrivalPos="232.89" arrivalPosLat="0.00" arrivalSpeed="13.29" duration="115.00" routeLength="1173.96" waitingTime="11.00" waitingCount="2" stopTime="0.00" timeLoss="30.27" rerouteNo="0" devices="tripinfo_car_74" vType="car" speedFactor="1.00" vaporized=""/>
    <tripinfo id="car_83" depart="126.00" departLane="161297934_0" departPos="5.10" departPosLat="0.00" departSpeed="0.00" departDelay="1.50" arrival="226.00" arrivalLane="1147624737#1_1" arrivalPos="232.89" arrivalPosLat="0.00" arrivalSpeed="14.32" duration="100.00" routeLength="1173.96" waitingTime="1.00" waitingCount="1" stopTime="0.00" timeLoss="17.78" rerouteNo="0" devices="tripinfo_car_83" vType="car" speedFactor="1.03" vaporized=""/>
    <tripinfo id="car_145" depart="218.00" departLane="430532793.85.34_0" departPos="5.10" departPosLat="0.00" departSpeed="0.00" departDelay="0.50" arrival="229.00" arrivalLane="-407552210#1_0" arrivalPos="26.49" arrivalPosLat="0.00" arrivalSpeed="5.67" duration="11.00" routeLength="56.10" waitingTime="0.00" waitingCount="0" stopTime="0.00" timeLoss="3.40" rerouteNo="0" devices="tripinfo_car_145" vType="car" speedFactor="1.04" vaporized=""/>
    <tripinfo id="car_17" depart="26.00" departLane="27348585#0_0" departPos="5.10" departPosLat="0.00" departSpeed="0.00" departDelay="0.50" arrival="230.00" arrivalLane="1147624737#1_1" arrivalPos="232.89" arrivalPosLat="0.00" arrivalSpeed="12.94" duration="204.00" routeLength="1466.66" waitingTime="46.00" waitingCount="2" stopTime="0.00" timeLoss="70.10" rerouteNo="0" devices="tripinfo_car_17" vType="car" speedFactor="0.94" vaporized=""/>
    <tripinfo id="car_81" depart="123.00" departLane="200568455#0_0" departPos="5.10" departPosLat="0.00" departSpeed="0.00" departDelay="1.50" arrival="230.00" arrivalLane="1362020490_0" arrivalPos="77.99" arrivalPosLat="0.00" arrivalSpeed="14.62" duration="107.00" routeLength="1053.39" waitingTime="21.00" waitingCount="1" stopTime="0.00" timeLoss="35.14" rerouteNo="0" devices="tripinfo_car_81" vType="car" speedFactor="1.06" vaporized=""/>
    <tripinfo id="car_65" depart="99.00" departLane="961539471_0" departPos="5.10" departPosLat="0.00" departSpeed="0.00" departDelay="1.50" arrival="231.00" arrivalLane="1147624737#1_2" arrivalPos="232.89" arrivalPosLat="0.00" arrivalSpeed="13.99" duration="132.00" routeLength="806.16" waitingTime="62.00" waitingCount="2" stopTime="0.00" timeLoss="76.68" rerouteNo="0" devices="tripinfo_car_65" vType="car" speedFactor="1.06" vaporized=""/>
    <tripinfo id="car_ev_0" depart="0.00" departLane="29114711#0.184_0" departPos="4.90" departPosLat="0.00" departSpeed="0.00" departDelay="0.00" arrival="233.00" arrivalLane="-1316855122#3_0" arrivalPos="353.66" arrivalPosLat="0.00" arrivalSpeed="8.27" duration="233.00" routeLength="1691.99" waitingTime="73.00" waitingCount="1" stopTime="0.00" timeLoss="92.53" rerouteNo="0" devices="tripinfo_car_ev_0" vType="car_ev" speedFactor="1.06" vaporized=""/>