<?xml version="1.0" encoding="UTF-8"?>

<!-- generated on 2026-03-07T14:26:54.354711+01:00 by Eclipse SUMO GUI 1.26.0
<sumoConfiguration xmlns:xsi="http://www.w3.org/2001/XMLSchema-instance" xsi:noNamespaceSchemaLocation="http://sumo.dlr.de/xsd/sumoConfiguration.xsd">

    <input>
        <net-file value="C:\Program Files (x86)\Eclipse\Sumo\tools\2026-03-07-14-26-30\osm.net.xml.gz"/>
        <route-files value="C:\Program Files (x86)\Eclipse\Sumo\tools\2026-03-07-14-26-30\osm_pt.rou.xml,C:\Program Files (x86)\Eclipse\Sumo\tools\2026-03-07-14-26-30\osm.passenger.trips.xml"/>
        <additional-files value="C:\Program Files (x86)\Eclipse\Sumo\tools\2026-03-07-14-26-30\osm.poly.xml.gz,C:\Program Files (x86)\Eclipse\Sumo\tools\2026-03-07-14-26-30\osm_stops.add.xml,C:\Program Files (x86)\Eclipse\Sumo\tools\2026-03-07-14-26-30\output.add.xml"/>
    </input>

    <output>
        <tripinfo-output value="C:\Program Files (x86)\Eclipse\Sumo\tools\2026-03-07-14-26-30\tripinfos.xml"/>
        <stop-output value="C:\Program Files (x86)\Eclipse\Sumo\tools\2026-03-07-14-26-30\stopinfos.xml"/>
        <statistic-output value="C:\Program Files (x86)\Eclipse\Sumo\tools\2026-03-07-14-26-30\stats.xml"/>
    </output>

    <processing>
        <ignore-route-errors value="true"/>
        <tls.actuated.jam-threshold value="30"/>
    </processing>

    <routing>
        <device.rerouting.adaptation-steps value="18"/>
        <device.rerouting.adaptation-interval value="10"/>
    </routing>

    <report>
        <verbose value="true"/>
        <duration-log.statistics value="true"/>
        <no-step-log value="true"/>
    </report>

    <gui_only>
        <gui-settings-file value="C:\Program Files (x86)\Eclipse\Sumo\tools\2026-03-07-14-26-30\osm.view.xml"/>
    </gui_only>

</sumoConfiguration>
-->

<tripinfos xmlns:xsi="http://www.w3.org/2001/XMLSchema-instance" xsi:noNamespaceSchemaLocation="http://sumo.dlr.de/xsd/tripinfo_file.xsd">
    <tripinfo id="veh6" depart="33.00" departLane="348733402#0_2" departPos="5.10" departSpeed="0.00" departDelay="0.44" arrival="75.00" arrivalLane="-1027271884#2_0" arrivalPos="256.01" arrivalSpeed="13.43" duration="42.00" routeLength="477.48" waitingTime="0.00" waitingCount="0" stopTime="0.00" timeLoss="7.78" rerouteNo="1" devices="tripinfo_veh6 routing_veh6" vType="veh_passenger" speedFactor="1.05" vaporized=""/>
    <tripinfo id="veh3" depart="17.00" departLane="175920328#0_0" departPos="5.10" departSpeed="15.04" departDelay="0.72" arrival="94.00" arrivalLane="-1154069599#0_0" arrivalPos="68.94" arrivalSpeed="14.80" duration="77.00" routeLength="1037.82" waitingTime="0.00" waitingCount="0" stopTime="0.00" timeLoss="8.00" rerouteNo="1" devices="tripinfo_veh3 routing_veh3" vType="veh_passenger" speedFactor="1.08" vaporized=""/>
    <tripinfo id="veh0" depart="0.00" departLane="25706158#0_0" departPos="5.10" departSpeed="0.00" departDelay="0.00" arrival="100.00" arrivalLane="-1154069599#0_0" arrivalPos="68.94" arrivalSpeed="14.17" duration="100.00" routeLength="908.26" waitingTime="2.00" waitingCount="1" stopTime="0.00" timeLoss="14.20" rerouteNo="1" devices="tripinfo_veh0 routing_veh0" vType="veh_passenger" speedFactor="1.06" vaporized=""/>
    <tripinfo id="veh5" depart="28.00" departLane="27348632_1" departPos="3.31" departSpeed="0.00" departDelay="0.87" arrival="126.00" arrivalLane="227681211_0" arrivalPos="14.97" arrivalSpeed="10.65" duration="98.00" routeLength="885.40" waitingTime="3.00" waitingCount="1" stopTime="0.00" timeLoss="18.42" rerouteNo="1" devices="tripinfo_veh5 routing_veh5" vType="veh_passenger" speedFactor="0.83" vaporized=""/>
    <tripinfo id="pt_bus_168:0.0" depart="17.00" departLane="29177181#0_0" departPos="12.10" departSpeed="0.00" departDelay="0.00" arrival="140.00" arrivalLane="1220574353_0" arrivalPos="155.23" arrivalSpeed="7.87" duration="123.00" routeLength="610.69" waitingTime="2.00" waitingCount="2" stopTime="30.00" timeLoss="15.25" rerouteNo="0" devices="tripinfo_pt_bus_168:0.0" vType="pt_bus" speedFactor="1.00" vaporized=""/>
    <tripinfo id="veh13" depart="71.00" departLane="287311357#0_1" departPos="5.10" departSpeed="0.00" departDelay="0.46" arrival="155.00" arrivalLane="-1316855122#3_0" arrivalPos="353.54" arrivalSpeed="9.31" duration="84.00" routeLength="740.23" waitingTime="0.00" waitingCount="0" stopTime="0.00" timeLoss="11.82" rerouteNo="1" devices="tripinfo_veh13 routing_veh13" vType="veh_passenger" speedFactor="1.12" vaporized=""/>
    <tripinfo id="veh7" depart="38.00" departLane="348733402#0_2" departPos="5.10" departSpeed="0.00" departDelay="0.02" arrival="177.00" arrivalLane="287311357#0_0" arrivalPos="14.13" arrivalSpeed="10.95" duration="139.00" routeLength="1275.53" waitingTime="8.00" waitingCount="2" stopTime="0.00" timeLoss="32.51" rerouteNo="1" devices="tripinfo_veh7 routing_veh7" vType="veh_passenger" speedFactor="0.89" vaporized=""/>
    <tripinfo id="veh19" depart="104.00" departLane="236811148_5" departPos="5.10" departSpeed="0.00" departDelay="0.91" arrival="181.00" arrivalLane="277203712_0" arrivalPos="12.93" arrivalSpeed="15.09" duration="77.00" routeLength="1054.42" waitingTime="0.00" waitingCount="0" stopTime="0.00" timeLoss="10.24" rerouteNo="1" devices="tripinfo_veh19 routing_veh19" vType="veh_passenger" speedFactor="1.16" vaporized=""/>
    <tripinfo id="pt_bus_115:0.0" depart="66.00" departLane="29177181#0_0" departPos="12.10" departSpeed="0.00" departDelay="0.00" arrival="189.00" arrivalLane="1220574353_0" arrivalPos="155.23" arrivalSpeed="8.32" duration="123.00" routeLength="610.69" waitingTime="1.00" waitingCount="1" stopTime="31.00" timeLoss="14.88" rerouteNo="0" devices="tripinfo_pt_bus_115:0.0" vType="pt_bus" speedFactor="1.00" vaporized=""/>
    <tripinfo id="pt_bus_168:1.0" depart="65.00" departLane="168136132_0" departPos="12.10" departSpeed="0.00" departDelay="0.00" arrival="207.00" arrivalLane="1163972696#0_0" arrivalPos="203.46" arrivalSpeed="7.89" duration="142.00" routeLength="821.63" waitingTime="0.00" waitingCount="0" stopTime="30.00" timeLoss="8.45" rerouteNo="0" devices="tripinfo_pt_bus_168:1.0" vType="pt_bus" speedFactor="1.00" vaporized=""/>
    <tripinfo id="veh8" depart="44.00" departLane="-227216232#1_0" departPos="5.10" departSpeed="0.00" departDelay="0.59" arrival="223.00" arrivalLane="-183709903_0" arrivalPos="47.93" arrivalSpeed="6.92" duration="179.00" routeLength="1849.47" waitingTime="0.00" waitingCount="0" stopTime="0.00" timeLoss="21.31" rerouteNo="1" devices="tripinfo_veh8 routing_veh8" vType="veh_passenger" speedFactor="0.94" vaporized=""/>
    <tripinfo id="pt_bus_115:2.0" depart="93.00" departLane="29177181#0_0" departPos="12.10" departSpeed="0.00" departDelay="0.00" arrival="227.00" arrivalLane="1220574353_0" arrivalPos="155.23" arrivalSpeed="8.24" duration="134.00" routeLength="610.69" waitingTime="6.00" waitingCount="2" stopTime="30.00" timeLoss="21.71" rerouteNo="0" devices="tripinfo_pt_bus_115:2.0" vType="pt_bus" speedFactor="1.00" vaporized=""/>
    <tripinfo id="veh10" depart="55.00" departLane="161297937_2" departPos="5.10" departSpeed="0.00" departDelay="0.74" arrival="234.00" arrivalLane="236809165_0" arrivalPos="88.55" arrivalSpeed="14.51" duration="179.00" routeLength="2410.39" waitingTime="0.00" waitingCount="0" stopTime="0.00" timeLoss="17.57" rerouteNo="1" devices="tripinfo_veh10 routing_veh10" vType="veh_passenger" speedFactor="1.09" vaporized=""/>
    <tripinfo id="pt_train_PR:0.0" depart="47.00" departLane="-1083813154#0_0" departPos="135.10" departSpeed="0.00" departDelay="0.00" arrival="244.00" arrivalLane="-298828640#0_0" arrivalPos="143.44" arrivalSpeed="22.22" duration="197.00" routeLength="2067.87" waitingTime="0.00" waitingCount="0" stopTime="30.00" timeLoss="0.00" rerouteNo="0" devices="tripinfo_pt_train_PR:0.0" vType="pt_train" speedFactor="1.00" vaporized=""/>
    <tripinfo id="pt_bus_115:1.0" depart="91.00" departLane="168136132_0" departPos="12.10" departSpeed="0.00" departDelay="0.00" arrival="245.00" arrivalLane="1163972696#0_0" arrivalPos="203.46" arrivalSpeed="8.23" duration="154.00" routeLength="821.63" waitingTime="8.00" waitingCount="1" stopTime="30.00" timeLoss="14.09" rerouteNo="0" devices="tripinfo_pt_bus_115:1.0" vType="pt_bus" speedFactor="1.00" vaporized=""/>
    <tripinfo id="veh1" depart="6.00" departLane="29114711#0_1" departPos="5.10" departSpeed="13.03" departDelay="0.57" arrival="256.00" arrivalLane="27475852_0" arrivalPos="17.34" arrivalSpeed="7.32" duration="250.00" routeLength="2697.73" waitingTime="0.00" waitingCount="0" stopTime="0.00" timeLoss="18.28" rerouteNo="1" devices="tripinfo_veh1 routing_veh1" vType="veh_passenger" speedFactor="0.94" vaporized=""/>
    <tripinfo id="veh28" depart="152.00" departLane="961539472_0" departPos="5.10" departSpeed="0.00" departDelay="0.07" arrival="258.00" arrivalLane="200568455#0_2" arrivalPos="124.91" arrivalSpeed="15.51" duration="106.00" routeLength="951.58" waitingTime="23.00" waitingCount="2" stopTime="0.00" timeLoss="43.38" rerouteNo="1" devices="tripinfo_veh28 routing_veh28" vType="veh_passenger" speedFactor="1.13" vaporized=""/>
    <tripinfo id="veh31" depart="169.00" departLane="-1091389055_0" departPos="5.10" departSpeed="16.03" departDelay="0.79" arrival="273.00" arrivalLane="287956206#2_0" arrivalPos="25.25" arrivalSpeed="14.26" duration="104.00" routeLength="1064.83" waitingTime="4.00" waitingCount="1" stopTime="0.00" timeLoss="20.56" rerouteNo="1" devices="tripinfo_veh31 routing_veh31" vType="veh_passenger" speedFactor="1.15" vaporized=""/>
    <tripinfo id="pt_bus_124:1.0" depart="132.00" departLane="29177181#0_0" departPos="12.10" departSpeed="0.00" departDelay="0.00" arrival="273.00" arrivalLane="1220574353_0" arrivalPos="155.23" arrivalSpeed="8.18" duration="141.00" routeLength="610.69" waitingTime="15.00" waitingCount="2" stopTime="24.00" timeLoss="35.05" rerouteNo="0" devices="tripinfo_pt_bus_124:1.0" vType="pt_bus" speedFactor="1.00" vaporized=""/>
    <tripinfo id="veh18" depart="98.00" departLane="-660939283#1_0" departPos="5.10" departSpeed="7.80" departDelay="0.33" arrival="278.00" arrivalLane="161297933_1" arrivalPos="220.62" arrivalSpeed="11.78" duration="180.00" routeLength="1395.77" waitingTime="13.00" waitingCount="1" stopTime="0.00" timeLoss="33.71" rerouteNo="1" devices="tripinfo_veh18 routing_veh18" vType="veh_passenger" speedFactor="0.94" vaporized=""/>
    <tripinfo id="veh21" depart="114.00" departLane="1027271884#0_1" departPos="5.10" departSpeed="14.03" departDelay="0.05" arrival="284.00" arrivalLane="900553942#0_0" arrivalPos="147.62" arrivalSpeed="7.85" duration="170.00" routeLength="1602.35" waitingTime="3.00" waitingCount="1" stopTime="0.00" timeLoss="22.06" rerouteNo="1" devices="tripinfo_veh21 routing_veh21" vType="veh_passenger" speedFactor="1.01" vaporized=""/>
    <tripinfo id="pt_bus_262:0.0" depart="98.00" departLane="168136132_0" departPos="12.10" departSpeed="0.00" departDelay="0.00" arrival="284.00" arrivalLane="1163972696#0_0" arrivalPos="203.46" arrivalSpeed="8.28" duration="186.00" routeLength="821.63" waitingTime="33.00" waitingCount="2" stopTime="30.00" timeLoss="46.24" rerouteNo="0" devices="tripinfo_pt_bus_262:0.0" vType="pt_bus" speedFactor="1.00" vaporized=""/>
    <tripinfo id="veh4" depart="22.00" departLane="1069052593_0" departPos="5.10" departSpeed="0.00" departDelay="0.30" arrival="290.00" arrivalLane="200568454#0_0" arrivalPos="581.27" arrivalSpeed="14.27" duration="268.00" routeLength="2782.57" waitingTime="20.00" waitingCount="3" stopTime="0.00" timeLoss="71.10" rerouteNo="1" devices="tripinfo_veh4 routing_veh4" vType="veh_passenger" speedFactor="1.03" vaporized=""/>
    <tripinfo id="pt_bus_116:0.0" depart="3.00" departLane="61293509_0" departPos="12.10" departSpeed="0.00" departDelay="0.00" arrival="292.00" arrivalLane="430532795_0" arrivalPos="303.23" arrivalSpeed="13.69" duration="289.00" routeLength="2029.15" waitingTime="2.00" waitingCount="1" stopTime="74.00" timeLoss="27.38" rerouteNo="0" devices="tripinfo_pt_bus_116:0.0" vType="pt_bus" speedFactor="1.00" vaporized=""/>
    <tripinfo id="veh15" depart="85.00" departLane="161297933_0" departPos="5.10" departSpeed="0.00" departDelay="3.61" arrival="293.00" arrivalLane="1063332489#0_0" arrivalPos="108.80" arrivalSpeed="6.60" duration="208.00" routeLength="1711.84" waitingTime="11.00" waitingCount="3" stopTime="0.00" timeLoss="44.49" rerouteNo="1" devices="tripinfo_veh15 routing_veh15" vType="veh_passenger" speedFactor="0.93" vaporized=""/>
    <tripinfo id="veh38" depart="207.00" departLane="313992351#0_1" departPos="5.10" departSpeed="0.00" departDelay="0.81" arrival="301.00" arrivalLane="227216232#0_0" arrivalPos="147.57" arrivalSpeed="14.87" duration="94.00" routeLength="1137.36" waitingTime="0.00" waitingCount="0" stopTime="0.00" timeLoss="18.70" rerouteNo="1" devices="tripinfo_veh38 routing_veh38" vType="veh_passenger" speedFactor="1.10" vaporized=""/>
    <tripinfo id="veh2" depart="11.00" departLane="639948534#0_0" departPos="5.10" departSpeed="8.42" departDelay="0.15" arrival="306.00" arrivalLane="-183709902_0" arrivalPos="157.78" arrivalSpeed="7.21" duration="295.00" routeLength="2767.49" waitingTime="0.00" waitingCount="0" stopTime="0.00" timeLoss="25.13" rerouteNo="1" devices="tripinfo_veh2 routing_veh2" vType="veh_passenger" speedFactor="1.01" vaporized=""/>
    <tripinfo id="pt_bus_136:0.0" depart="0.00" departLane="29114711#0_0" departPos="12.10" departSpeed="0.00" departDelay="0.00" arrival="309.00" arrivalLane="-1316855122#3_0" arrivalPos="353.54" arrivalSpeed="8.26" duration="309.00" routeLength="1861.78" waitingTime="0.00" waitingCount="0" stopTime="96.00" timeLoss="17.69" rerouteNo="0" devices="tripinfo_pt_bus_136:0.0" vType="pt_bus" speedFactor="1.00" vaporized=""/>
    <tripinfo id="veh11" depart="60.00" departLane="373856612_0" departPos="5.10" departSpeed="0.00" departDelay="0.31" arrival="319.00" arrivalLane="236818214_0" arrivalPos="48.23" arrivalSpeed="13.16" duration="259.00" routeLength="2731.34" waitingTime="16.00" waitingCount="4" stopTime="0.00" timeLoss="64.03" rerouteNo="1" devices="tripinfo_veh11 routing_veh11" vType="veh_passenger" speedFactor="1.03" vaporized=""/>
    <tripinfo id="pt_bus_162:0.0" depart="104.00" departLane="168136132_0" departPos="12.10" departSpeed="0.00" departDelay="1.00" arrival="324.00" arrivalLane="1163972696#0_0" arrivalPos="203.46" arrivalSpeed="7.85" duration="220.00" routeLength="821.63" waitingTime="60.00" waitingCount="3" stopTime="29.00" timeLoss="77.77" rerouteNo="0" devices="tripinfo_pt_bus_162:0.0" vType="pt_bus" speedFactor="1.00" vaporized=""/>
    <tripinfo id="veh30" depart="163.00" departLane="313994435#0_0" departPos="5.10" departSpeed="16.37" departDelay="0.22" arrival="327.00" arrivalLane="175334160#0_0" arrivalPos="128.32" arrivalSpeed="9.50" duration="164.00" routeLength="1997.65" waitingTime="2.00" waitingCount="1" stopTime="0.00" timeLoss="27.32" rerouteNo="1" devices="tripinfo_veh30 routing_veh30" vType="veh_passenger" speedFactor="1.18" vaporized=""/>
    <tripinfo id="veh46" depart="250.00" departLane="183709910_0" departPos="5.10" departSpeed="0.00" departDelay="0.40" arrival="330.00" arrivalLane="236809165_0" arrivalPos="88.55" arrivalSpeed="12.97" duration="80.00" routeLength="737.10" waitingTime="0.00" waitingCount="0" stopTime="0.00" timeLoss="10.69" rerouteNo="1" devices="tripinfo_veh46 routing_veh46" vType="veh_passenger" speedFactor="1.00" vaporized=""/>
    <tripinfo id="pt_bus_126:0.0" depart="15.00" departLane="61293509_0" departPos="12.10" departSpeed="0.00" departDelay="0.00" arrival="331.00" arrivalLane="430532795_0" arrivalPos="303.23" arrivalSpeed="13.69" duration="316.00" routeLength="2029.15" waitingTime="29.00" waitingCount="4" stopTime="61.00" timeLoss="47.78" rerouteNo="0" devices="tripinfo_pt_bus_126:0.0" vType="pt_bus" speedFactor="1.00" vaporized=""/>
    <tripinfo id="veh39" depart="212.00" departLane="313994435#0_0" departPos="5.10" departSpeed="12.51" departDelay="0.38" arrival="331.00" arrivalLane="224821293#2_1" arrivalPos="31.19" arrivalSpeed="11.34" duration="119.00" routeLength="1216.17" waitingTime="6.00" waitingCount="1" stopTime="0.00" timeLoss="20.60" rerouteNo="1" devices="tripinfo_veh39 routing_veh39" vType="veh_passenger" speedFactor="0.90" vaporized=""/>
    <tripinfo id="veh20" depart="109.00" departLane="1271126935_4" departPos="5.10" departSpeed="0.00" departDelay="0.48" arrival="342.00" arrivalLane="1163972696#0_0" arrivalPos="203.46" arrivalSpeed="7.59" duration="233.00" routeLength="1872.18" waitingTime="0.00" waitingCount="0" stopTime="0.00" timeLoss="22.36" rerouteNo="1" devices="tripinfo_veh20 routing_veh20" vType="veh_passenger" speedFactor="1.02" vaporized=""/>
    <tripinfo id="pt_bus_810:0.0" depart="107.00" departLane="29114711#0_0" departPos="12.10" departSpeed="0.00" departDelay="0.00" arrival="344.00" arrivalLane="200568454#0_0" arrivalPos="581.27" arrivalSpeed="13.79" duration="237.00" routeLength="2238.07" waitingTime="0.00" waitingCount="0" stopTime="46.00" timeLoss="21.17" rerouteNo="0" devices="tripinfo_pt_bus_810:0.0" vType="pt_bus" speedFactor="1.00" vaporized=""/>
    <tripinfo id="veh41" depart="223.00" departLane="-1091389055_0" departPos="5.10" departSpeed="13.29" departDelay="0.53" arrival="348.00" arrivalLane="771467599#0_2" arrivalPos="25.74" arrivalSpeed="12.37" duration="125.00" routeLength="1165.55" waitingTime="0.00" waitingCount="0" stopTime="0.00" timeLoss="16.73" rerouteNo="1" devices="tripinfo_veh41 routing_veh41" vType="veh_passenger" speedFactor="0.96" vaporized=""/>
    <tripinfo id="veh12" depart="66.00" departLane="449253145#0_0" departPos="5.10" departSpeed="0.00" departDelay="0.89" arrival="350.00" arrivalLane="236809165_0" arrivalPos="88.55" arrivalSpeed="14.11" duration="284.00" routeLength="3059.07" waitingTime="4.00" waitingCount="1" stopTime="0.00" timeLoss="31.76" rerouteNo="1" devices="tripinfo_veh12 routing_veh12" vType="veh_passenger" speedFactor="1.05" vaporized=""/>
    <tripinfo id="pt_bus_110:0.0" depart="6.00" departLane="29114711#0_0" departPos="12.10" departSpeed="0.00" departDelay="0.00" arrival="354.00" arrivalLane="-1316855122#3_0" arrivalPos="353.54" arrivalSpeed="8.07" duration="348.00" routeLength="1861.78" waitingTime="35.00" waitingCount="2" stopTime="101.00" timeLoss="44.41" rerouteNo="0" devices="tripinfo_pt_bus_110:0.0" vType="pt_bus" speedFactor="1.00" vaporized=""/>
    <tripinfo id="veh29" depart="158.00" departLane="-227216232#1_0" departPos="5.10" departSpeed="0.00" departDelay="0.64" arrival="357.00" arrivalLane="-1316855122#3_0" arrivalPos="353.54" arrivalSpeed="7.14" duration="199.00" routeLength="1528.23" waitingTime="25.00" waitingCount="1" stopTime="0.00" timeLoss="47.84" rerouteNo="1" devices="tripinfo_veh29 routing_veh29" vType="veh_passenger" speedFactor="0.93" vaporized=""/>
    <tripinfo id="veh22" depart="120.00" departLane="61293002_0" departPos="5.10" departSpeed="0.00" departDelay="0.63" arrival="358.00" arrivalLane="1233892219_0" arrivalPos="45.80" arrivalSpeed="6.98" duration="238.00" routeLength="1665.92" waitingTime="37.00" waitingCount="3" stopTime="0.00" timeLoss="80.46" rerouteNo="1" devices="tripinfo_veh22 routing_veh22" vType="veh_passenger" speedFactor="0.97" vaporized=""/>
    <tripinfo id="veh32" depart="174.00" departLane="277203721_1" departPos="5.10" departSpeed="13.96" departDelay="0.37" arrival="359.00" arrivalLane="227216231#0_1" arrivalPos="213.46" arrivalSpeed="13.58" duration="185.00" routeLength="2138.54" waitingTime="9.00" waitingCount="2" stopTime="0.00" timeLoss="30.58" rerouteNo="1" devices="tripinfo_veh32 routing_veh32" vType="veh_passenger" speedFactor="1.01" vaporized=""/>
    <tripinfo id="pt_bus_126:1.0" depart="21.00" departLane="61293509_0" departPos="12.10" departSpeed="0.00" departDelay="0.00" arrival="368.00" arrivalLane="430532795_0" arrivalPos="303.23" arrivalSpeed="13.47" duration="347.00" routeLength="2029.15" waitingTime="53.00" waitingCount="3" stopTime="61.00" timeLoss="87.62" rerouteNo="0" devices="tripinfo_pt_bus_126:1.0" vType="pt_bus" speedFactor="1.00" vaporized=""/>
    <tripinfo id="pt_bus_124:0.0" depart="15.00" departLane="-368641585#1_0" departPos="12.10" departSpeed="0.00" departDelay="0.00" arrival="369.00" arrivalLane="397056711#1_0" arrivalPos="194.45" arrivalSpeed="13.87" duration="354.00" routeLength="2379.82" waitingTime="18.00" waitingCount="3" stopTime="85.00" timeLoss="49.96" rerouteNo="0" devices="tripinfo_pt_bus_124:0.0" vType="pt_bus" speedFactor="1.00" vaporized=""/>
    <tripinfo id="pt_train_PR:1.0" depart="174.00" departLane="-1083813154#0_0" departPos="135.10" departSpeed="0.00" departDelay="0.00" arrival="371.00" arrivalLane="-298828640#0_0" arrivalPos="143.44" arrivalSpeed="22.22" duration="197.00" routeLength="2067.87" waitingTime="0.00" waitingCount="0" stopTime="30.00" timeLoss="0.00" rerouteNo="0" devices="tripinfo_pt_train_PR:1.0" vType="pt_train" speedFactor="1.00" vaporized=""/>
    <tripinfo id="veh16" depart="87.00" departLane="1220574353_0" departPos="5.10" departSpeed="0.00" departDelay="0.18" arrival="374.00" arrivalLane="845695689#0_0" arrivalPos="46.98" arrivalSpeed="7.11" duration="287.00" routeLength="1636.23" waitingTime="29.00" waitingCount="1" stopTime="0.00" timeLoss="62.13" rerouteNo="1" devices="tripinfo_veh16 routing_veh16" vType="veh_passenger" speedFactor="0.88" vaporized=""/>
    <tripinfo id="pt_bus_162:1.0" depart="227.00" departLane="168136132_0" departPos="12.10" departSpeed="0.00" departDelay="0.00" arrival="376.00" arrivalLane="1163972696#0_0" arrivalPos="203.46" arrivalSpeed="7.84" duration="149.00" routeLength="821.63" waitingTime="1.00" waitingCount="1" stopTime="30.00" timeLoss="16.65" rerouteNo="0" devices="tripinfo_pt_bus_162:1.0" vType="pt_bus" speedFactor="1.00" vaporized=""/>
    <tripinfo id="veh23" depart="125.00" departLane="27475852_0" departPos="5.10" departSpeed="0.00" departDelay="0.20" arrival="377.00" arrivalLane="169400609#0_1" arrivalPos="33.07" arrivalSpeed="11.18" duration="252.00" routeLength="1830.11" waitingTime="26.00" waitingCount="4" stopTime="0.00" timeLoss="75.23" rerouteNo="1" devices="tripinfo_veh23 routing_veh23" vType="veh_passenger" speedFactor="0.89" vaporized=""/>
    <tripinfo id="veh33" depart="183.00" departLane="1220574353_0" departPos="5.10" departSpeed="0.00" departDelay="3.94" arrival="381.00" arrivalLane="255904385#0_0" arrivalPos="54.65" arrivalSpeed="15.85" duration="198.00" routeLength="1681.52" waitingTime="23.00" waitingCount="1" stopTime="0.00" timeLoss="53.97" rerouteNo="1" devices="tripinfo_veh33 routing_veh33" vType="veh_passenger" speedFactor="1.17" vaporized=""/>
    <tripinfo id="veh26" depart="142.00" departLane="236818215_3" departPos="5.10" departSpeed="0.00" departDelay="0.92" arrival="392.00" arrivalLane="668550370#0_0" arrivalPos="133.05" arrivalSpeed="4.85" duration="250.00" routeLength="1444.05" waitingTime="0.00" waitingCount="0" stopTime="0.00" timeLoss="43.02" rerouteNo="1" devices="tripinfo_veh26 routing_veh26" vType="veh_passenger" speedFactor="0.92" vaporized=""/>
    <tripinfo id="veh53" depart="288.00" departLane="1362017841_2" departPos="5.10" departSpeed="0.00" departDelay="0.42" arrival="393.00" arrivalLane="236809165_0" arrivalPos="88.55" arrivalSpeed="15.09" duration="105.00" routeLength="1391.29" waitingTime="0.00" waitingCount="0" stopTime="0.00" timeLoss="12.55" rerouteNo="1" devices="tripinfo_veh53 routing_veh53" vType="veh_passenger" speedFactor="1.10" vaporized=""/>
    <tripinfo id="pt_bus_126:2.0" depart="27.00" departLane="29114711#0_0" departPos="12.10" departSpeed="0.00" departDelay="0.00" arrival="394.00" arrivalLane="-1316855122#3_0" arrivalPos="353.54" arrivalSpeed="7.79" duration="367.00" routeLength="1861.78" waitingTime="54.00" waitingCount="3" stopTime="91.00" timeLoss="68.84" rerouteNo="0" devices="tripinfo_pt_bus_126:2.0" vType="pt_bus" speedFactor="1.00" vaporized=""/>
    <tripinfo id="pt_train_R:0.0" depart="54.00" departLane="321284935_0" departPos="135.10" departSpeed="0.00" departDelay="0.00" arrival="408.00" arrivalLane="999619920#2_0" arrivalPos="3133.38" arrivalSpeed="33.33" duration="354.00" routeLength="6190.52" waitingTime="0.00" waitingCount="0" stopTime="30.00" timeLoss="0.00" rerouteNo="0" devices="tripinfo_pt_train_R:0.0" vType="pt_train" speedFactor="1.00" vaporized=""/>
    <tripinfo id="veh37" depart="201.00" departLane="236832919#0_0" departPos="5.10" departSpeed="16.39" departDelay="0.24" arrival="409.00" arrivalLane="-405799075#2_0" arrivalPos="59.96" arrivalSpeed="9.03" duration="208.00" routeLength="2594.34" waitingTime="5.00" waitingCount="1" stopTime="0.00" timeLoss="24.46" rerouteNo="1" devices="tripinfo_veh37 routing_veh37" vType="veh_passenger" speedFactor="1.18" vaporized=""/>
    <tripinfo id="veh34" depart="185.00" departLane="-278396895#1_0" departPos="5.10" departSpeed="8.29" departDelay="0.51" arrival="410.00" arrivalLane="183709897_0" arrivalPos="155.53" arrivalSpeed="8.00" duration="225.00" routeLength="2120.54" waitingTime="0.00" waitingCount="0" stopTime="0.00" timeLoss="20.38" rerouteNo="1" devices="tripinfo_veh34 routing_veh34" vType="veh_passenger" speedFactor="0.99" vaporized=""/>
    <tripinfo id="veh62" depart="337.00" departLane="961539471_3" departPos="5.10" departSpeed="0.00" departDelay="0.59" arrival="410.00" arrivalLane="-183709907_0" arrivalPos="174.02" arrivalSpeed="7.51" duration="73.00" routeLength="731.82" waitingTime="0.00" waitingCount="0" stopTime="0.00" timeLoss="10.21" rerouteNo="1" devices="tripinfo_veh62 routing_veh62" vType="veh_passenger" speedFactor="1.02" vaporized=""/>
    <tripinfo id="pt_train_R:1.0" depart="55.00" departLane="239430023_0" departPos="135.10" departSpeed="0.00" departDelay="0.00" arrival="413.00" arrivalLane="321284936_0" arrivalPos="921.39" arrivalSpeed="25.25" duration="358.00" routeLength="6196.57" waitingTime="0.00" waitingCount="0" stopTime="30.00" timeLoss="66.16" rerouteNo="0" devices="tripinfo_pt_train_R:1.0" vType="pt_train" speedFactor="1.00" vaporized=""/>
    <tripinfo id="veh25" depart="136.00" departLane="236811149#0_2" departPos="5.10" departSpeed="0.00" departDelay="0.35" arrival="417.00" arrivalLane="1163972696#0_0" arrivalPos="203.46" arrivalSpeed="6.45" duration="281.00" routeLength="1937.11" waitingTime="0.00" waitingCount="0" stopTime="0.00" timeLoss="29.86" rerouteNo="1" devices="tripinfo_veh25 routing_veh25" vType="veh_passenger" speedFactor="0.87" vaporized=""/>
    <tripinfo id="pt_bus_227:0.0" depart="160.00" departLane="1027271884#0_0" departPos="12.10" departSpeed="0.00" departDelay="0.00" arrival="422.00" arrivalLane="430532795_0" arrivalPos="303.23" arrivalSpeed="13.42" duration="262.00" routeLength="2145.86" waitingTime="1.00" waitingCount="1" stopTime="65.00" timeLoss="14.55" rerouteNo="0" devices="tripinfo_pt_bus_227:0.0" vType="pt_bus" speedFactor="1.00" vaporized=""/>
    <tripinfo id="pt_bus_168:3.0" depart="303.00" departLane="29177181#0_0" departPos="12.10" departSpeed="0.00" departDelay="0.00" arrival="423.00" arrivalLane="1220574353_0" arrivalPos="155.23" arrivalSpeed="8.32" duration="120.00" routeLength="610.69" waitingTime="0.00" waitingCount="0" stopTime="33.00" timeLoss="8.51" rerouteNo="0" devices="tripinfo_pt_bus_168:3.0" vType="pt_bus" speedFactor="1.00" vaporized=""/>
    <tripinfo id="pt_bus_126:3.0" depart="33.00" departLane="29114711#0_0" departPos="12.10" departSpeed="0.00" departDelay="1.00" arrival="434.00" arrivalLane="-1316855122#3_0" arrivalPos="353.54" arrivalSpeed="8.13" duration="401.00" routeLength="1861.78" waitingTime="82.00" waitingCount="5" stopTime="89.00" timeLoss="102.17" rerouteNo="0" devices="tripinfo_pt_bus_126:3.0" vType="pt_bus" speedFactor="1.00" vaporized=""/>
    <tripinfo id="veh9" depart="49.00" departLane="348733402#0_2" departPos="5.10" departSpeed="0.00" departDelay="0.17" arrival="437.00" arrivalLane="313992354#0_0" arrivalPos="100.32" arrivalSpeed="10.75" duration="388.00" routeLength="3211.26" waitingTime="12.00" waitingCount="3" stopTime="0.00" timeLoss="67.19" rerouteNo="1" devices="tripinfo_veh9 routing_veh9" vType="veh_passenger" speedFactor="0.86" vaporized=""/>
    <tripinfo id="veh55" depart="299.00" departLane="1147624737#0_0" departPos="5.10" departSpeed="0.00" departDelay="0.57" arrival="438.00" arrivalLane="27475518#0_0" arrivalPos="210.86" arrivalSpeed="7.68" duration="139.00" routeLength="1216.03" waitingTime="0.00" waitingCount="0" stopTime="0.00" timeLoss="14.14" rerouteNo="1" devices="tripinfo_veh55 routing_veh55" vType="veh_passenger" speedFactor="1.00" vaporized=""/>
    <tripinfo id="veh44" depart="239.00" departLane="61295588#0_0" departPos="5.10" departSpeed="0.00" departDelay="0.25" arrival="446.00" arrivalLane="900553942#0_0" arrivalPos="147.62" arrivalSpeed="7.64" duration="207.00" routeLength="1598.97" waitingTime="31.00" waitingCount="3" stopTime="0.00" timeLoss="64.00" rerouteNo="1" devices="tripinfo_veh44 routing_veh44" vType="veh_passenger" speedFactor="1.04" vaporized=""/>
    <tripinfo id="veh56" depart="304.00" departLane="1027271884#0_1" departPos="5.10" departSpeed="12.49" departDelay="0.14" arrival="449.00" arrivalLane="-27475852_0" arrivalPos="17.34" arrivalSpeed="7.24" duration="145.00" routeLength="1205.19" waitingTime="0.00" waitingCount="0" stopTime="0.00" timeLoss="13.76" rerouteNo="1" devices="tripinfo_veh56 routing_veh56" vType="veh_passenger" speedFactor="0.90" vaporized=""/>
    <tripinfo id="veh24" depart="131.00" departLane="1180195346_0" departPos="5.10" departSpeed="0.00" departDelay="0.77" arrival="450.00" arrivalLane="1147624737#1_0" arrivalPos="220.17" arrivalSpeed="10.36" duration="319.00" routeLength="2152.99" waitingTime="29.00" waitingCount="4" stopTime="0.00" timeLoss="75.37" rerouteNo="1" devices="tripinfo_veh24 routing_veh24" vType="veh_passenger" speedFactor="0.83" vaporized=""/>