<?xml version="1.0" encoding="UTF-8"?>

<!-- generated on 2026-03-14T12:03:09.563860+01:00 by Eclipse SUMO GUI 1.26.0
<sumoConfiguration xmlns:xsi="http://www.w3.org/2001/XMLSchema-instance" xsi:noNamespaceSchemaLocation="http://sumo.dlr.de/xsd/sumoConfiguration.xsd">

    <input>
        <net-file value="C:\Users\breje\Desktop\projektKoncowy\simulation\network/osm.net.xml"/>
        <route-files value="C:\Users\breje\Desktop\projektKoncowy\simulation\demand/netedit_cfg.rou.xml,C:\Users\breje\Desktop\projektKoncowy\simulation\demand/osm_pt.rou.xml,C:\Users\breje\Desktop\projektKoncowy\simulation\ demand/cars.rou.xml"/>
        <additional-files value="C:\Users\breje\Desktop\projektKoncowy\simulation\osm.add.xml"/>
    </input>

    <output>
        <summary-output value="C:\Users\breje\Desktop\projektKoncowy\simulation\results/stats.xml"/>
        <tripinfo-output value="C:\Users\breje\Desktop\projektKoncowy\simulation\results/tripinfos.xml"/>
        <stop-output value="C:\Users\breje\Desktop\projektKoncowy\simulation\results/stopinfos.xml"/>
    </output>

    <processing>
        <lateral-resolution value="0.8"/>
    </processing>

</sumoConfiguration>
-->

<tripinfos xmlns:xsi="http://www.w3.org/2001/XMLSchema-instance" xsi:noNamespaceSchemaLocation="http://sumo.dlr.de/xsd/tripinfo_file.xsd">
    <tripinfo id="car_7" depart="11.00" departLane="287311363#0_0" departPos="5.10" departPosLat="0.00" departSpeed="7.38" departDelay="0.50" arrival="47.00" arrivalLane="942711943_0" arrivalPos="37.06" arrivalPosLat="0.00" arrivalSpeed="6.86" duration="36.00" routeLength="246.50" waitingTime="0.00" waitingCount="0" stopTime="0.00" timeLoss="4.48" rerouteNo="0" devices="tripinfo_car_7" vType="car" speedFactor="0.89" vaporized=""/>
    <tripinfo id="car_14" depart="21.00" departLane="161297934_0" departPos="5.10" departPosLat="0.00" departSpeed="13.77" departDelay="0.00" arrival="65.00" arrivalLane="236818221#0_1" arrivalPos="32.76" arrivalPosLat="0.00" arrivalSpeed="13.44" duration="44.00" routeLength="443.56" waitingTime="3.00" waitingCount="1" stopTime="0.00" timeLoss="10.68" rerouteNo="0" devices="tripinfo_car_14" vType="car" speedFactor="0.99" vaporized=""/>
    <tripinfo id="car_12" depart="18.00" departLane="236811149#0_0" departPos="5.10" departPosLat="0.00" departSpeed="14.54" departDelay="0.00" arrival="77.00" arrivalLane="1147624737#1_0" arrivalPos="232.89" arrivalPosLat="0.00" arrivalSpeed="13.80" duration="59.00" routeLength="706.71" waitingTime="3.00" waitingCount="1" stopTime="0.00" timeLoss="9.78" rerouteNo="0" devices="tripinfo_car_12" vType="car" speedFactor="1.05" vaporized=""/>
    <tripinfo id="car_33" depart="50.00" departLane="1362019276_0" departPos="5.10" departPosLat="0.00" departSpeed="16.28" departDelay="0.50" arrival="84.00" arrivalLane="187938713#0_0" arrivalPos="18.54" arrivalPosLat="0.00" arrivalSpeed="14.73" duration="34.00" routeLength="489.50" waitingTime="0.00" waitingCount="0" stopTime="0.00" timeLoss="2.46" rerouteNo="0" devices="tripinfo_car_33" vType="car" speedFactor="1.17" vaporized=""/>
    <tripinfo id="car_3" depart="5.00" departLane="27348585#0_0" departPos="5.10" departPosLat="0.00" departSpeed="14.61" departDelay="0.50" arrival="85.00" arrivalLane="-1316855122#3_0" arrivalPos="353.66" arrivalPosLat="0.00" arrivalSpeed="8.92" duration="80.00" routeLength="672.70" waitingTime="0.00" waitingCount="0" stopTime="0.00" timeLoss="10.32" rerouteNo="0" devices="tripinfo_car_3" vType="car" speedFactor="1.08" vaporized=""/>
    <tripinfo id="car_5" depart="8.00" departLane="61293002.258_0" departPos="5.10" departPosLat="0.00" departSpeed="6.92" departDelay="0.50" arrival="95.00" arrivalLane="224821293#2_1" arrivalPos="34.63" arrivalPosLat="0.00" arrivalSpeed="11.21" duration="87.00" routeLength="617.43" waitingTime="0.00" waitingCount="0" stopTime="0.00" timeLoss="10.88" rerouteNo="0" devices="tripinfo_car_5" vType="car" speedFactor="0.83" vaporized=""/>
    <tripinfo id="car_66" depart="100.00" departLane="E2_1" departPos="5.10" departPosLat="0.00" departSpeed="12.60" departDelay="1.00" arrival="101.00" arrivalLane="E2_1" arrivalPos="8.37" arrivalPosLat="0.00" arrivalSpeed="11.46" duration="1.00" routeLength="3.27" waitingTime="0.00" waitingCount="0" stopTime="0.00" timeLoss="0.09" rerouteNo="0" devices="tripinfo_car_66" vType="car" speedFactor="0.91" vaporized=""/>
    <tripinfo id="car_17" depart="26.00" departLane="187938712_0" departPos="5.10" departPosLat="0.00" departSpeed="10.46" departDelay="0.50" arrival="106.00" arrivalLane="-1316855122#3_0" arrivalPos="353.66" arrivalPosLat="0.00" arrivalSpeed="7.74" duration="80.00" routeLength="573.63" waitingTime="0.00" waitingCount="0" stopTime="0.00" timeLoss="7.48" rerouteNo="0" devices="tripinfo_car_17" vType="car" speedFactor="0.94" vaporized=""/>
    <tripinfo id="car_19" depart="29.00" departLane="942711932#0_0" departPos="5.10" departPosLat="0.00" departSpeed="12.38" departDelay="0.50" arrival="108.00" arrivalLane="1348067247_0" arrivalPos="38.93" arrivalPosLat="0.00" arrivalSpeed="8.78" duration="79.00" routeLength="585.32" waitingTime="19.00" waitingCount="1" stopTime="0.00" timeLoss="36.30" rerouteNo="0" devices="tripinfo_car_19" vType="car" speedFactor="1.16" vaporized=""/>
    <tripinfo id="car_2" depart="3.00" departLane="942711943_0" departPos="5.10" departPosLat="0.00" departSpeed="8.42" departDelay="0.00" arrival="114.00" arrivalLane="-1348067248_0" arrivalPos="39.26" arrivalPosLat="0.00" arrivalSpeed="7.20" duration="111.00" routeLength="1047.32" waitingTime="0.00" waitingCount="0" stopTime="0.00" timeLoss="12.83" rerouteNo="0" devices="tripinfo_car_2" vType="car" speedFactor="1.01" vaporized=""/>
    <tripinfo id="car_28" depart="43.00" departLane="942711932#0_1" departPos="5.10" departPosLat="0.00" departSpeed="12.38" departDelay="1.00" arrival="115.00" arrivalLane="1147624737#1_1" arrivalPos="232.89" arrivalPosLat="0.00" arrivalSpeed="14.52" duration="72.00" routeLength="883.97" waitingTime="5.00" waitingCount="1" stopTime="0.00" timeLoss="14.54" rerouteNo="0" devices="tripinfo_car_28" vType="car" speedFactor="1.13" vaporized=""/>
    <tripinfo id="car_4" depart="6.00" departLane="61293002_0" departPos="5.10" departPosLat="0.00" departSpeed="8.58" departDelay="0.00" arrival="117.00" arrivalLane="-1316855122#3_0" arrivalPos="353.66" arrivalPosLat="0.00" arrivalSpeed="8.14" duration="111.00" routeLength="876.51" waitingTime="0.00" waitingCount="0" stopTime="0.00" timeLoss="12.42" rerouteNo="0" devices="tripinfo_car_4" vType="car" speedFactor="1.03" vaporized=""/>
    <tripinfo id="car_25" depart="40.00" departLane="1348067247_0" departPos="5.10" departPosLat="0.00" departSpeed="5.95" departDelay="2.50" arrival="119.00" arrivalLane="1362020490_0" arrivalPos="77.99" arrivalPosLat="0.00" arrivalSpeed="11.06" duration="79.00" routeLength="572.86" waitingTime="11.00" waitingCount="1" stopTime="0.00" timeLoss="21.87" rerouteNo="0" devices="tripinfo_car_25" vType="car" speedFactor="0.87" vaporized=""/>
    <tripinfo id="car_58" depart="87.00" departLane="287956205_0" departPos="5.10" departPosLat="0.00" departSpeed="14.22" departDelay="0.00" arrival="122.00" arrivalLane="25126523_0" arrivalPos="54.66" arrivalPosLat="0.00" arrivalSpeed="13.12" duration="35.00" routeLength="115.19" waitingTime="21.00" waitingCount="1" stopTime="0.00" timeLoss="26.61" rerouteNo="0" devices="tripinfo_car_58" vType="car" speedFactor="1.02" vaporized=""/>
    <tripinfo id="car_11" depart="17.00" departLane="29114711#0.184_1" departPos="5.10" departPosLat="0.00" departSpeed="14.26" departDelay="0.50" arrival="125.00" arrivalLane="1362020490_1" arrivalPos="77.99" arrivalPosLat="0.00" arrivalSpeed="13.14" duration="108.00" routeLength="1439.16" waitingTime="0.00" waitingCount="0" stopTime="0.00" timeLoss="6.12" rerouteNo="0" devices="tripinfo_car_11" vType="car" speedFactor="1.03" vaporized=""/>
    <tripinfo id="car_34" depart="51.00" departLane="1362017841_0" departPos="5.10" departPosLat="0.00" departSpeed="1.80" departDelay="0.00" arrival="127.00" arrivalLane="27348585#0_0" arrivalPos="36.54" arrivalPosLat="0.00" arrivalSpeed="13.75" duration="76.00" routeLength="303.71" waitingTime="34.00" waitingCount="2" stopTime="0.00" timeLoss="53.24" rerouteNo="0" devices="tripinfo_car_34" vType="car" speedFactor="0.99" vaporized=""/>
    <tripinfo id="car_36" depart="54.00" departLane="277203721_0" departPos="5.10" departPosLat="0.00" departSpeed="13.52" departDelay="0.00" arrival="127.00" arrivalLane="200568452#0_0" arrivalPos="720.04" arrivalPosLat="0.00" arrivalSpeed="13.31" duration="73.00" routeLength="924.06" waitingTime="0.00" waitingCount="0" stopTime="0.00" timeLoss="3.67" rerouteNo="0" devices="tripinfo_car_36" vType="car" speedFactor="0.97" vaporized=""/>
    <tripinfo id="car_54" depart="81.00" departLane="236825277_0" departPos="5.10" departPosLat="0.00" departSpeed="8.36" departDelay="0.00" arrival="131.00" arrivalLane="-1316855122#3_0" arrivalPos="353.66" arrivalPosLat="0.00" arrivalSpeed="7.29" duration="50.00" routeLength="382.72" waitingTime="0.00" waitingCount="0" stopTime="0.00" timeLoss="3.52" rerouteNo="0" devices="tripinfo_car_54" vType="car" speedFactor="1.00" vaporized=""/>
    <tripinfo id="car_10" depart="15.00" departLane="1362017843_0" departPos="5.10" departPosLat="0.00" departSpeed="15.15" departDelay="0.00" arrival="139.00" arrivalLane="1147624737#1_0" arrivalPos="232.89" arrivalPosLat="0.00" arrivalSpeed="14.77" duration="124.00" routeLength="1099.56" waitingTime="41.00" waitingCount="1" stopTime="0.00" timeLoss="50.42" rerouteNo="0" devices="tripinfo_car_10" vType="car" speedFactor="1.09" vaporized=""/>
    <tripinfo id="car_15" depart="23.00" departLane="161297934_1" departPos="5.10" departPosLat="0.00" departSpeed="12.87" departDelay="0.50" arrival="143.00" arrivalLane="1362020490_0" arrivalPos="77.99" arrivalPosLat="0.00" arrivalSpeed="12.44" duration="120.00" routeLength="1086.27" waitingTime="16.00" waitingCount="2" stopTime="0.00" timeLoss="33.71" rerouteNo="0" devices="tripinfo_car_15" vType="car" speedFactor="0.93" vaporized=""/>
    <tripinfo id="car_20" depart="30.00" departLane="313992354#1_0" departPos="5.10" departPosLat="0.00" departSpeed="14.14" departDelay="0.00" arrival="145.00" arrivalLane="1362020490_0" arrivalPos="77.99" arrivalPosLat="0.00" arrivalSpeed="13.91" duration="115.00" routeLength="765.67" waitingTime="50.00" waitingCount="1" stopTime="0.00" timeLoss="60.60" rerouteNo="0" devices="tripinfo_car_20" vType="car" speedFactor="1.02" vaporized=""/>
    <tripinfo id="car_22" depart="33.00" departLane="29114711#0.184_1" departPos="5.10" departPosLat="0.00" departSpeed="13.54" departDelay="0.00" arrival="151.00" arrivalLane="1147624737#1_0" arrivalPos="232.89" arrivalPosLat="0.00" arrivalSpeed="13.36" duration="118.00" routeLength="1470.93" waitingTime="0.00" waitingCount="0" stopTime="0.00" timeLoss="8.09" rerouteNo="0" devices="tripinfo_car_22" vType="car" speedFactor="0.97" vaporized=""/>
    <tripinfo id="car_73" depart="110.00" departLane="200568455#0_0" departPos="5.10" departPosLat="0.00" departSpeed="14.66" departDelay="0.50" arrival="163.00" arrivalLane="224821293#2_0" arrivalPos="34.63" arrivalPosLat="0.00" arrivalSpeed="13.51" duration="53.00" routeLength="732.46" waitingTime="0.00" waitingCount="0" stopTime="0.00" timeLoss="2.40" rerouteNo="0" devices="tripinfo_car_73" vType="car" speedFactor="1.06" vaporized=""/>
    <tripinfo id="car_24" depart="36.00" departLane="61293002_0" departPos="5.10" departPosLat="0.00" departSpeed="6.88" departDelay="0.00" arrival="167.00" arrivalLane="1362020490_0" arrivalPos="77.99" arrivalPosLat="0.00" arrivalSpeed="10.53" duration="131.00" routeLength="855.59" waitingTime="10.00" waitingCount="1" stopTime="0.00" timeLoss="27.08" rerouteNo="0" devices="tripinfo_car_24" vType="car" speedFactor="0.83" vaporized=""/>
    <tripinfo id="car_64" depart="96.00" departLane="196662201_0" departPos="5.10" departPosLat="0.00" departSpeed="13.02" departDelay="0.00" arrival="168.00" arrivalLane="1362020490_1" arrivalPos="77.99" arrivalPosLat="0.00" arrivalSpeed="11.81" duration="72.00" routeLength="860.70" waitingTime="0.00" waitingCount="0" stopTime="0.00" timeLoss="5.25" rerouteNo="0" devices="tripinfo_car_64" vType="car" speedFactor="0.94" vaporized=""/>
    <tripinfo id="car_65" depart="98.00" departLane="200568455#0_0" departPos="5.10" departPosLat="0.00" departSpeed="12.26" departDelay="0.50" arrival="171.00" arrivalLane="25126523_0" arrivalPos="54.66" arrivalPosLat="0.00" arrivalSpeed="11.05" duration="73.00" routeLength="836.97" waitingTime="0.00" waitingCount="0" stopTime="0.00" timeLoss="4.15" rerouteNo="0" devices="tripinfo_car_65" vType="car" speedFactor="0.88" vaporized=""/>
    <tripinfo id="car_31" depart="47.00" departLane="29114711#0.184_1" departPos="5.10" departPosLat="0.00" departSpeed="16.03" departDelay="0.50" arrival="173.00" arrivalLane="-407552210#1_0" arrivalPos="26.53" arrivalPosLat="0.00" arrivalSpeed="6.16" duration="126.00" routeLength="1721.66" waitingTime="0.00" waitingCount="0" stopTime="0.00" timeLoss="14.74" rerouteNo="0" devices="tripinfo_car_31" vType="car" speedFactor="1.15" vaporized=""/>
    <tripinfo id="car_61" depart="92.00" departLane="187938713#0_0" departPos="5.10" departPosLat="0.00" departSpeed="15.55" departDelay="0.50" arrival="176.00" arrivalLane="-407552210#1_0" arrivalPos="26.53" arrivalPosLat="0.00" arrivalSpeed="5.42" duration="84.00" routeLength="809.69" waitingTime="18.00" waitingCount="2" stopTime="0.00" timeLoss="27.98" rerouteNo="0" devices="tripinfo_car_61" vType="car" speedFactor="1.12" vaporized=""/>
    <tripinfo id="car_96" depart="144.00" departLane="200568455#0_0" departPos="5.10" departPosLat="0.00" departSpeed="14.03" departDelay="0.00" arrival="179.00" arrivalLane="236818214_0" arrivalPos="44.55" arrivalPosLat="0.00" arrivalSpeed="13.58" duration="35.00" routeLength="454.31" waitingTime="0.00" waitingCount="0" stopTime="0.00" timeLoss="1.67" rerouteNo="0" devices="tripinfo_car_96" vType="car" speedFactor="1.01" vaporized=""/>
    <tripinfo id="car_53" depart="80.00" departLane="E2_0" departPos="5.10" departPosLat="0.00" departSpeed="3.27" departDelay="0.50" arrival="180.00" arrivalLane="430532795_0" arrivalPos="303.61" arrivalPosLat="0.00" arrivalSpeed="14.63" duration="100.00" routeLength="1076.10" waitingTime="19.00" waitingCount="1" stopTime="0.00" timeLoss="27.86" rerouteNo="0" devices="tripinfo_car_53" vType="car" speedFactor="1.10" vaporized=""/>
    <tripinfo id="car_106" depart="159.00" departLane="29114711#0.184_0" departPos="5.10" departPosLat="0.00" departSpeed="14.08" departDelay="0.00" arrival="192.00" arrivalLane="1362017843_0" arrivalPos="69.46" arrivalPosLat="0.00" arrivalSpeed="13.02" duration="33.00" routeLength="435.73" waitingTime="0.00" waitingCount="0" stopTime="0.00" timeLoss="1.51" rerouteNo="0" devices="tripinfo_car_106" vType="car" speedFactor="1.01" vaporized=""/>
    <tripinfo id="car_13" depart="20.00" departLane="200568455#0_0" departPos="5.10" departPosLat="0.00" departSpeed="15.60" departDelay="0.50" arrival="196.00" arrivalLane="61295588#0_0" arrivalPos="38.40" arrivalPosLat="0.00" arrivalSpeed="15.26" duration="176.00" routeLength="1099.35" waitingTime="79.00" waitingCount="1" stopTime="0.00" timeLoss="93.84" rerouteNo="0" devices="tripinfo_car_13" vType="car" speedFactor="1.12" vaporized=""/>
    <tripinfo id="car_41" depart="62.00" departLane="E2_0" departPos="5.10" departPosLat="0.00" departSpeed="3.27" departDelay="0.50" arrival="196.00" arrivalLane="236809165_0" arrivalPos="92.40" arrivalPosLat="0.00" arrivalSpeed="13.15" duration="134.00" routeLength="1200.86" waitingTime="34.00" waitingCount="1" stopTime="0.00" timeLoss="42.91" rerouteNo="0" devices="tripinfo_car_41" vType="car" speedFactor="0.96" vaporized=""/>
    <tripinfo id="car_112" depart="168.00" departLane="161297934_1" departPos="5.10" departPosLat="0.00" departSpeed="15.26" departDelay="0.00" arrival="196.00" arrivalLane="942711932#0_1" arrivalPos="28.73" arrivalPosLat="0.00" arrivalSpeed="6.11" duration="28.00" routeLength="313.62" waitingTime="0.00" waitingCount="0" stopTime="0.00" timeLoss="7.17" rerouteNo="0" devices="tripinfo_car_112" vType="car" speedFactor="1.10" vaporized=""/>
    <tripinfo id="car_44" depart="66.00" departLane="1362017841_0" departPos="5.10" departPosLat="0.00" departSpeed="1.13" departDelay="0.00" arrival="199.00" arrivalLane="236809165_0" arrivalPos="92.40" arrivalPosLat="0.00" arrivalSpeed="13.68" duration="133.00" routeLength="1381.16" waitingTime="20.00" waitingCount="1" stopTime="0.00" timeLoss="37.53" rerouteNo="0" devices="tripinfo_car_44" vType="car" speedFactor="1.04" vaporized=""/>
    <tripinfo id="car_52" depart="78.00" departLane="287956206#2_0" departPos="5.10" departPosLat="0.00" departSpeed="10.58" departDelay="0.00" arrival="199.00" arrivalLane="-1316855122#3_0" arrivalPos="353.66" arrivalPosLat="0.00" arrivalSpeed="8.25" duration="121.00" routeLength="835.67" waitingTime="21.00" waitingCount="1" stopTime="0.00" timeLoss="34.05" rerouteNo="0" devices="tripinfo_car_52" vType="car" speedFactor="1.02" vaporized=""/>
    <tripinfo id="car_68" depart="102.00" departLane="200568455#0_1" departPos="5.10" departPosLat="0.00" departSpeed="14.45" departDelay="0.00" arrival="202.00" arrivalLane="61295588#0_0" arrivalPos="38.40" arrivalPosLat="0.00" arrivalSpeed="13.99" duration="100.00" routeLength="1099.35" waitingTime="0.00" waitingCount="0" stopTime="0.00" timeLoss="11.79" rerouteNo="0" devices="tripinfo_car_68" vType="car" speedFactor="1.04" vaporized=""/>
    <tripinfo id="car_46" depart="69.00" departLane="61316958_0" departPos="5.10" departPosLat="0.00" departSpeed="11.09" departDelay="0.00" arrival="203.00" arrivalLane="-1316855122#3_0" arrivalPos="353.66" arrivalPosLat="0.00" arrivalSpeed="7.93" duration="134.00" routeLength="995.22" waitingTime="11.00" waitingCount="1" stopTime="0.00" timeLoss="34.28" rerouteNo="0" devices="tripinfo_car_46" vType="car" speedFactor="1.00" vaporized=""/>
    <tripinfo id="car_0" depart="0.00" departLane="29114711#0.184_0" departPos="5.10" departPosLat="0.00" departSpeed="14.72" departDelay="0.00" arrival="205.00" arrivalLane="-1316855122#3_0" arrivalPos="353.66" arrivalPosLat="0.00" arrivalSpeed="8.41" duration="205.00" routeLength="1691.38" waitingTime="37.00" waitingCount="2" stopTime="0.00" timeLoss="64.76" rerouteNo="0" devices="tripinfo_car_0" vType="car" speedFactor="1.06" vaporized=""/>
    <tripinfo id="car_23" depart="35.00" departLane="29114711#0.184_0" departPos="5.10" departPosLat="0.00" departSpeed="12.36" departDelay="0.50" arrival="211.00" arrivalLane="430532795_0" arrivalPos="303.61" arrivalPosLat="0.00" arrivalSpeed="11.33" duration="176.00" routeLength="2003.91" waitingTime="0.00" waitingCount="0" stopTime="0.00" timeLoss="12.70" rerouteNo="0" devices="tripinfo_car_23" vType="car" speedFactor="0.89" vaporized=""/>
    <tripinfo id="car_70" depart="105.00" departLane="313992354#1_0" departPos="5.10" departPosLat="0.00" departSpeed="14.21" departDelay="0.00" arrival="212.00" arrivalLane="-1316855122#3_0" arrivalPos="353.66" arrivalPosLat="0.00" arrivalSpeed="7.39" duration="107.00" routeLength="1003.13" waitingTime="0.00" waitingCount="0" stopTime="0.00" timeLoss="9.31" rerouteNo="0" devices="tripinfo_car_70" vType="car" speedFactor="1.02" vaporized=""/>
    <tripinfo id="car_30" depart="45.00" departLane="200568455#0_0" departPos="5.10" departPosLat="0.00" departSpeed="16.37" departDelay="0.00" arrival="218.00" arrivalLane="236809165_1" arrivalPos="92.40" arrivalPosLat="0.00" arrivalSpeed="16.34" duration="173.00" routeLength="1739.31" waitingTime="55.00" waitingCount="1" stopTime="0.00" timeLoss="66.02" rerouteNo="0" devices="tripinfo_car_30" vType="car" speedFactor="1.18" vaporized=""/>
    <tripinfo id="car_122" depart="183.00" departLane="61316915_0" departPos="5.10" departPosLat="0.00" departSpeed="14.33" departDelay="0.00" arrival="220.00" arrivalLane="27476764#0_0" arrivalPos="24.01" arrivalPosLat="0.00" arrivalSpeed="7.32" duration="37.00" routeLength="332.92" waitingTime="0.00" waitingCount="0" stopTime="0.00" timeLoss="3.76" rerouteNo="0" devices="tripinfo_car_122" vType="car" speedFactor="1.03" vaporized=""/>
    <tripinfo id="car_59" depart="89.00" departLane="1362017843_0" departPos="5.10" departPosLat="0.00" departSpeed="13.47" departDelay="0.50" arrival="224.00" arrivalLane="1147624737#0_0" arrivalPos="32.49" arrivalPosLat="0.00" arrivalSpeed="12.79" duration="135.00" routeLength="866.39" waitingTime="60.00" waitingCount="1" stopTime="0.00" timeLoss="69.50" rerouteNo="0" devices="tripinfo_car_59" vType="car" speedFactor="0.97" vaporized=""/>
    <tripinfo id="car_16" depart="24.00" departLane="29114711#0.184_0" departPos="5.10" departPosLat="0.00" departSpeed="12.20" departDelay="0.00" arrival="226.00" arrivalLane="236809165_0" arrivalPos="92.40" arrivalPosLat="0.00" arrivalSpeed="11.93" duration="202.00" routeLength="2129.61" waitingTime="1.00" waitingCount="1" stopTime="0.00" timeLoss="26.97" rerouteNo="0" devices="tripinfo_car_16" vType="car" speedFactor="0.88" vaporized=""/>
    <tripinfo id="car_32" depart="48.00" departLane="200568455#0_2" departPos="5.10" departPosLat="0.00" departSpeed="13.96" departDelay="0.00" arrival="230.00" arrivalLane="-1316855122#3_0" arrivalPos="353.66" arrivalPosLat="0.00" arrivalSpeed="7.14" duration="182.00" routeLength="1290.85" waitingTime="46.00" waitingCount="1" stopTime="0.00" timeLoss="62.28" rerouteNo="0" devices="tripinfo_car_32" vType="car" speedFactor="1.01" vaporized=""/>
    <tripinfo id="car_50" depart="75.00" departLane="61316958_0" departPos="5.10" departPosLat="0.00" departSpeed="11.74" departDelay="0.00" arrival="231.00" arrivalLane="1147624737#1_0" arrivalPos="232.89" arrivalPosLat="0.00" arrivalSpeed="11.36" duration="156.00" routeLength="845.45" waitingTime="71.00" waitingCount="1" stopTime="0.00" timeLoss="83.94" rerouteNo="0" devices="tripinfo_car_50" vType="car" speedFactor="0.85" vaporized=""/>
    <tripinfo id="car_27" depart="41.00" departLane="200568455#0_1" departPos="5.10" departPosLat="0.00" departSpeed="13.18" departDelay="0.50" arrival="236.00" arrivalLane="236809165_0" arrivalPos="92.40" arrivalPosLat="0.00" arrivalSpeed="12.45" duration="195.00" routeLength="1739.31" waitingTime="50.00" waitingCount="1" stopTime="0.00" timeLoss="62.45" rerouteNo="0" devices="tripinfo_car_27" vType="car" speedFactor="0.95" vaporized=""/>
    <tripinfo id="car_76" depart="114.00" departLane="29114711#0.184_0" departPos="5.10" departPosLat="0.00" departSpeed="14.34" departDelay="0.00" arrival="241.00" arrivalLane="1147624737#1_2" arrivalPos="232.89" arrivalPosLat="0.00" arrivalSpeed="13.83" duration="127.00" routeLength="1474.66" waitingTime="11.00" waitingCount="1" stopTime="0.00" timeLoss="23.48" rerouteNo="0" devices="tripinfo_car_76" vType="car" speedFactor="1.03" vaporized=""/>
    <tripinfo id="car_107" depart="161.00" departLane="61293002_0" departPos="5.10" departPosLat="0.00" departSpeed="8.62" departDelay="0.50" arrival="241.00" arrivalLane="25126523_0" arrivalPos="54.66" arrivalPosLat="0.00" arrivalSpeed="13.19" duration="80.00" routeLength="636.42" waitingTime="0.00" waitingCount="0" stopTime="0.00" timeLoss="12.66" rerouteNo="0" devices="tripinfo_car_107" vType="car" speedFactor="1.03" vaporized=""/>
    <tripinfo id="car_74" depart="111.00" departLane="29114711#0.184_1" departPos="5.10" departPosLat="0.00" departSpeed="13.27" departDelay="0.00" arrival="244.00" arrivalLane="1147624737#1_0" arrivalPos="232.89" arrivalPosLat="0.00" arrivalSpeed="12.36" duration="133.00" routeLength="1470.93" waitingTime="7.00" waitingCount="1" stopTime="0.00" timeLoss="21.29" rerouteNo="0" devices="tripinfo_car_74" vType="car" speedFactor="0.96" vaporized=""/>
    <tripinfo id="car_67" depart="101.00" departLane="1362017842_1" departPos="5.10" departPosLat="0.00" departSpeed="12.70" departDelay="0.50" arrival="245.00" arrivalLane="1147624737#1_1" arrivalPos="232.89" arrivalPosLat="-1.00" arrivalSpeed="11.62" duration="144.00" routeLength="1033.53" waitingTime="48.00" waitingCount="1" stopTime="0.00" timeLoss="61.19" rerouteNo="0" devices="tripinfo_car_67" vType="car" speedFactor="0.91" vaporized=""/>
    <tripinfo id="car_37" depart="56.00" departLane="200568455#0_0" departPos="5.10" departPosLat="0.00" departSpeed="16.39" departDelay="0.50" arrival="246.00" arrivalLane="430532795_0" arrivalPos="303.61" arrivalPosLat="0.00" arrivalSpeed="15.94" duration="190.00" routeLength="1633.77" waitingTime="78.00" waitingCount="1" stopTime="0.00" timeLoss="88.95" rerouteNo="0" devices="tripinfo_car_37" vType="car" speedFactor="1.18" vaporized=""/>
    <tripinfo id="car_79" depart="119.00" departLane="200568455#0_1" departPos="5.10" departPosLat="0.00" departSpeed="15.10" departDelay="0.50" arrival="253.00" arrivalLane="430532795_0" arrivalPos="303.61" arrivalPosLat="0.00" arrivalSpeed="15.02" duration="134.00" routeLength="1633.77" waitingTime="13.00" waitingCount="1" stopTime="0.00" timeLoss="24.85" rerouteNo="0" devices="tripinfo_car_79" vType="car" speedFactor="1.09" vaporized=""/>
    <tripinfo id="car_90" depart="135.00" departLane="200568455#0_0" departPos="5.10" departPosLat="0.00" departSpeed="14.12" departDelay="0.00" arrival="260.00" arrivalLane="430532795_0" arrivalPos="303.61" arrivalPosLat="0.00" arrivalSpeed="13.47" duration="125.00" routeLength="1633.77" waitingTime="0.00" waitingCount="0" stopTime="0.00" timeLoss="8.34" rerouteNo="0" devices="tripinfo_car_90" vType="car" speedFactor="1.02" vaporized=""/>
    <tripinfo id="car_99" depart="149.00" departLane="200568455#0_1" departPos="5.10" departPosLat="0.00" departSpeed="15.24" departDelay="0.50" arrival="267.00" arrivalLane="430532795_0" arrivalPos="303.61" arrivalPosLat="0.00" arrivalSpeed="14.42" duration="118.00" routeLength="1628.59" waitingTime="0.00" waitingCount="0" stopTime="0.00" timeLoss="10.12" rerouteNo="0" devices="tripinfo_car_99" vType="car" speedFactor="1.10" vaporized=""/>
    <tripinfo id="car_129" depart="194.00" departLane="1232799370_0" departPos="5.10" departPosLat="0.00" departSpeed="14.01" departDelay="0.50" arrival="270.00" arrivalLane="236809165_0" arrivalPos="92.40" arrivalPosLat="0.00" arrivalSpeed="13.40" duration="76.00" routeLength="1001.45" waitingTime="0.00" waitingCount="0" stopTime="0.00" timeLoss="3.75" rerouteNo="0" devices="tripinfo_car_129" vType="car" speedFactor="1.01" vaporized=""/>
    <tripinfo id="car_42" depart="63.00" departLane="161297931#0_0" departPos="5.10" departPosLat="0.00" departSpeed="15.17" departDelay="0.00" arrival="272.00" arrivalLane="1147624737#1_0" arrivalPos="232.89" arrivalPosLat="0.00" arrivalSpeed="14.37" duration="209.00" routeLength="899.04" waitingTime="126.00" waitingCount="3" stopTime="0.00" timeLoss="148.34" rerouteNo="0" devices="tripinfo_car_42" vType="car" speedFactor="1.09" vaporized=""/>
    <tripinfo id="car_108" depart="162.00" departLane="161297934_0" departPos="5.10" departPosLat="0.00" departSpeed="14.79" departDelay="0.00" arrival="274.00" arrivalLane="-1316855122#3_0" arrivalPos="353.66" arrivalPosLat="0.00" arrivalSpeed="7.78" duration="112.00" routeLength="980.06" waitingTime="3.00" waitingCount="1" stopTime="0.00" timeLoss="16.98" rerouteNo="0" devices="tripinfo_car_108" vType="car" speedFactor="1.06" vaporized=""/>
    <tripinfo id="car_144" depart="223.00" departLane="27476764#0_0" departPos="5.10" departPosLat="0.00" departSpeed="6.11" departDelay="7.00" arrival="274.00" arrivalLane="1362020490_0" arrivalPos="77.99" arrivalPosLat="0.00" arrivalSpeed="10.09" duration="51.00" routeLength="396.06" waitingTime="0.00" waitingCount="0" stopTime="0.00" timeLoss="6.14" rerouteNo="0" devices="tripinfo_car_144" vType="car" speedFactor="0.73" vaporized=""/>
    <tripinfo id="car_1" depart="2.00" departLane="200568455#0_0" departPos="5.10" departPosLat="0.00" departSpeed="13.03" departDelay="0.50" arrival="277.00" arrivalLane="1147624737#1_1" arrivalPos="232.89" arrivalPosLat="-1.00" arrivalSpeed="12.92" duration="275.00" routeLength="1362.69" waitingTime="154.00" waitingCount="2" stopTime="0.00" timeLoss="169.45" rerouteNo="0" devices="tripinfo_car_1" vType="car" speedFactor="0.94" vaporized=""/>
    <tripinfo id="car_21" depart="32.00" departLane="200568455#0_0" departPos="5.10" departPosLat="0.00" departSpeed="14.03" departDelay="0.50" arrival="277.00" arrivalLane="1147624737#1_0" arrivalPos="232.89" arrivalPosLat="-0.70" arrivalSpeed="12.81" duration="245.00" routeLength="1362.69" waitingTime="122.00" waitingCount="3" stopTime="0.00" timeLoss="146.47" rerouteNo="0" devices="tripinfo_car_21" vType="car" speedFactor="1.01" vaporized=""/>
    <tripinfo id="car_18" depart="27.00" departLane="200568455#0_1" departPos="5.10" departPosLat="0.00" departSpeed="13.00" departDelay="0.00" arrival="278.00" arrivalLane="1147624737#1_2" arrivalPos="232.89" arrivalPosLat="0.00" arrivalSpeed="12.51" duration="251.00" routeLength="1363.47" waitingTime="126.00" waitingCount="2" stopTime="0.00" timeLoss="144.53" rerouteNo="0" devices="tripinfo_car_18" vType="car" speedFactor="0.94" vaporized=""/>
    <tripinfo id="car_132" depart="198.00" departLane="432309716#0_0" departPos="5.10" departPosLat="0.00" departSpeed="13.33" departDelay="0.00" arrival="279.00" arrivalLane="430532795_0" arrivalPos="303.61" arrivalPosLat="0.00" arrivalSpeed="12.28" duration="81.00" routeLength="1009.07" waitingTime="0.00" waitingCount="0" stopTime="0.00" timeLoss="4.00" rerouteNo="0" devices="tripinfo_car_132" vType="car" speedFactor="0.96" vaporized=""/>