<?xml version="1.0" encoding="UTF-8"?>

<!-- generated on 2026-03-14T14:31:46.449348+01:00 by Eclipse SUMO GUI 1.26.0
<sumoConfiguration xmlns:xsi="http://www.w3.org/2001/XMLSchema-instance" xsi:noNamespaceSchemaLocation="http://sumo.dlr.de/xsd/sumoConfiguration.xsd">

    <input>
        <net-file value="C:\Users\breje\Desktop\projektKoncowy\simulation\network/osm.net.xml"/>
        <route-files value="C:\Users\breje\Desktop\projektKoncowy\simulation\demand/netedit_cfg.rou.xml,C:\Users\breje\Desktop\projektKoncowy\simulation\demand/osm_pt.rou.xml,C:\Users\breje\Desktop\projektKoncowy\simulation\demand/cars.rou.xml"/>
        <additional-files value="C:\Users\breje\Desktop\projektKoncowy\simulation\osm.add.xml"/>
    </input>

    <output>
        <summary-output value="C:\Users\breje\Desktop\projektKoncowy\simulation\results/stats.xml"/>
        <tripinfo-output value="C:\Users\breje\Desktop\projektKoncowy\simulation\results/tripinfos.xml"/>
        <stop-output value="C:\Users\breje\Desktop\projektKoncowy\simulation\results/stopinfos.xml"/>
    </output>

    <processing>
        <lateral-resolution value="0.4"/>
    </processing>

</sumoConfiguration>
-->

<tripinfos xmlns:xsi="http://www.w3.org/2001/XMLSchema-instance" xsi:noNamespaceSchemaLocation="http://sumo.dlr.de/xsd/tripinfo_file.xsd">
    <tripinfo id="car_7" depart="11.00" departLane="287311363#0_0" departPos="5.10" departPosLat="0.00" departSpeed="8.71" departDelay="0.50" arrival="41.00" arrivalLane="942711943_0" arrivalPos="37.06" arrivalPosLat="0.00" arrivalSpeed="8.40" duration="30.00" routeLength="246.50" waitingTime="0.00" waitingCount="0" stopTime="0.00" timeLoss="3.93" rerouteNo="0" devices="tripinfo_car_7" vType="car" speedFactor="1.05" vaporized=""/>
    <tripinfo id="car_14" depart="21.00" departLane="161297934_0" departPos="5.10" departPosLat="0.00" departSpeed="14.26" departDelay="0.00" arrival="64.00" arrivalLane="236818221#0_1" arrivalPos="32.76" arrivalPosLat="0.00" arrivalSpeed="13.66" duration="43.00" routeLength="443.56" waitingTime="3.00" waitingCount="1" stopTime="0.00" timeLoss="11.74" rerouteNo="0" devices="tripinfo_car_14" vType="car" speedFactor="1.03" vaporized=""/>
    <tripinfo id="car_12" depart="18.00" departLane="236811149#0_0" departPos="5.10" departPosLat="0.00" departSpeed="11.90" departDelay="0.00" arrival="85.00" arrivalLane="1147624737#1_0" arrivalPos="232.89" arrivalPosLat="0.00" arrivalSpeed="11.66" duration="67.00" routeLength="706.71" waitingTime="0.00" waitingCount="0" stopTime="0.00" timeLoss="7.56" rerouteNo="0" devices="tripinfo_car_12" vType="car" speedFactor="0.86" vaporized=""/>
    <tripinfo id="car_3" depart="5.00" departLane="27348585#0_0" departPos="5.10" departPosLat="0.00" departSpeed="14.03" departDelay="0.50" arrival="87.00" arrivalLane="-1316855122#3_0" arrivalPos="353.66" arrivalPosLat="0.00" arrivalSpeed="7.90" duration="82.00" routeLength="672.70" waitingTime="0.00" waitingCount="0" stopTime="0.00" timeLoss="7.09" rerouteNo="0" devices="tripinfo_car_3" vType="car" speedFactor="1.01" vaporized=""/>
    <tripinfo id="car_17" depart="26.00" departLane="187938712_0" departPos="5.10" departPosLat="0.00" departSpeed="12.48" departDelay="0.50" arrival="92.00" arrivalLane="-1316855122#3_0" arrivalPos="353.66" arrivalPosLat="0.00" arrivalSpeed="9.14" duration="66.00" routeLength="573.63" waitingTime="0.00" waitingCount="0" stopTime="0.00" timeLoss="5.23" rerouteNo="0" devices="tripinfo_car_17" vType="car" speedFactor="1.12" vaporized=""/>
    <tripinfo id="car_5" depart="8.00" departLane="61293002.258_0" departPos="5.10" departPosLat="0.00" departSpeed="8.58" departDelay="0.50" arrival="95.00" arrivalLane="224821293#2_0" arrivalPos="34.63" arrivalPosLat="0.00" arrivalSpeed="13.71" duration="87.00" routeLength="612.36" waitingTime="12.00" waitingCount="1" stopTime="0.00" timeLoss="25.93" rerouteNo="0" devices="tripinfo_car_5" vType="car" speedFactor="1.03" vaporized=""/>
    <tripinfo id="car_33" depart="50.00" departLane="1362019276_0" departPos="5.10" departPosLat="0.00" departSpeed="11.47" departDelay="0.50" arrival="98.00" arrivalLane="187938713#0_0" arrivalPos="18.54" arrivalPosLat="0.00" arrivalSpeed="10.09" duration="48.00" routeLength="489.50" waitingTime="0.00" waitingCount="0" stopTime="0.00" timeLoss="4.27" rerouteNo="0" devices="tripinfo_car_33" vType="car" speedFactor="0.83" vaporized=""/>
    <tripinfo id="car_66" depart="99.00" departLane="E2_0" departPos="5.10" departPosLat="0.00" departSpeed="12.18" departDelay="0.00" arrival="100.00" arrivalLane="E2_0" arrivalPos="8.37" arrivalPosLat="0.00" arrivalSpeed="11.06" duration="1.00" routeLength="3.27" waitingTime="0.00" waitingCount="0" stopTime="0.00" timeLoss="0.09" rerouteNo="0" devices="tripinfo_car_66" vType="car" speedFactor="0.88" vaporized=""/>
    <tripinfo id="car_4" depart="6.00" departLane="61293002_0" departPos="5.10" departPosLat="0.00" departSpeed="9.02" departDelay="0.00" arrival="108.00" arrivalLane="-1316855122#3_0" arrivalPos="353.66" arrivalPosLat="0.00" arrivalSpeed="8.74" duration="102.00" routeLength="876.51" waitingTime="0.00" waitingCount="0" stopTime="0.00" timeLoss="7.79" rerouteNo="0" devices="tripinfo_car_4" vType="car" speedFactor="1.08" vaporized=""/>
    <tripinfo id="car_25" depart="38.00" departLane="1348067247_0" departPos="5.10" departPosLat="0.00" departSpeed="9.16" departDelay="0.50" arrival="115.00" arrivalLane="1362020490_0" arrivalPos="77.99" arrivalPosLat="0.00" arrivalSpeed="15.58" duration="77.00" routeLength="572.86" waitingTime="22.00" waitingCount="1" stopTime="0.00" timeLoss="33.31" rerouteNo="0" devices="tripinfo_car_25" vType="car" speedFactor="1.16" vaporized=""/>
    <tripinfo id="car_28" depart="44.00" departLane="942711932#0_1" departPos="5.10" departPosLat="0.00" departSpeed="12.38" departDelay="2.00" arrival="119.00" arrivalLane="1147624737#1_0" arrivalPos="232.89" arrivalPosLat="0.00" arrivalSpeed="13.76" duration="75.00" routeLength="883.97" waitingTime="2.00" waitingCount="1" stopTime="0.00" timeLoss="11.46" rerouteNo="0" devices="tripinfo_car_28" vType="car" speedFactor="1.01" vaporized=""/>
    <tripinfo id="car_2" depart="3.00" departLane="942711943_0" departPos="5.10" departPosLat="0.00" departSpeed="7.82" departDelay="0.00" arrival="123.00" arrivalLane="-1348067248_0" arrivalPos="39.26" arrivalPosLat="0.00" arrivalSpeed="7.49" duration="120.00" routeLength="1047.32" waitingTime="0.00" waitingCount="0" stopTime="0.00" timeLoss="14.30" rerouteNo="0" devices="tripinfo_car_2" vType="car" speedFactor="0.94" vaporized=""/>
    <tripinfo id="car_34" depart="51.00" departLane="1362017841_0" departPos="5.10" departPosLat="0.00" departSpeed="3.50" departDelay="0.00" arrival="123.00" arrivalLane="27348585#0_0" arrivalPos="36.54" arrivalPosLat="0.00" arrivalSpeed="11.86" duration="72.00" routeLength="303.71" waitingTime="39.00" waitingCount="1" stopTime="0.00" timeLoss="46.26" rerouteNo="0" devices="tripinfo_car_34" vType="car" speedFactor="0.87" vaporized=""/>
    <tripinfo id="car_58" depart="87.00" departLane="287956205_0" departPos="5.10" departPosLat="0.00" departSpeed="14.49" departDelay="0.00" arrival="123.00" arrivalLane="25126523_0" arrivalPos="54.66" arrivalPosLat="0.00" arrivalSpeed="13.68" duration="36.00" routeLength="115.19" waitingTime="21.00" waitingCount="1" stopTime="0.00" timeLoss="27.16" rerouteNo="0" devices="tripinfo_car_58" vType="car" speedFactor="1.04" vaporized=""/>
    <tripinfo id="car_54" depart="81.00" departLane="236825277_0" departPos="5.10" departPosLat="0.00" departSpeed="8.58" departDelay="0.00" arrival="130.00" arrivalLane="-1316855122#3_0" arrivalPos="353.66" arrivalPosLat="0.00" arrivalSpeed="8.14" duration="49.00" routeLength="382.72" waitingTime="0.00" waitingCount="0" stopTime="0.00" timeLoss="4.09" rerouteNo="0" devices="tripinfo_car_54" vType="car" speedFactor="1.03" vaporized=""/>
    <tripinfo id="car_36" depart="54.00" departLane="277203721_0" departPos="5.10" departPosLat="0.00" departSpeed="12.74" departDelay="0.00" arrival="131.00" arrivalLane="200568452#0_0" arrivalPos="720.04" arrivalPosLat="0.00" arrivalSpeed="11.56" duration="77.00" routeLength="924.06" waitingTime="0.00" waitingCount="0" stopTime="0.00" timeLoss="4.33" rerouteNo="0" devices="tripinfo_car_36" vType="car" speedFactor="0.92" vaporized=""/>
    <tripinfo id="car_15" depart="23.00" departLane="161297934_1" departPos="5.10" departPosLat="0.00" departSpeed="14.54" departDelay="0.50" arrival="141.00" arrivalLane="1362020490_0" arrivalPos="77.99" arrivalPosLat="0.00" arrivalSpeed="14.31" duration="118.00" routeLength="1086.27" waitingTime="18.00" waitingCount="2" stopTime="0.00" timeLoss="41.36" rerouteNo="0" devices="tripinfo_car_15" vType="car" speedFactor="1.05" vaporized=""/>
    <tripinfo id="car_19" depart="29.00" departLane="942711932#0_0" departPos="5.10" departPosLat="0.00" departSpeed="12.38" departDelay="0.50" arrival="143.00" arrivalLane="1348067247_0" arrivalPos="38.93" arrivalPosLat="0.00" arrivalSpeed="7.32" duration="114.00" routeLength="585.32" waitingTime="44.00" waitingCount="2" stopTime="0.00" timeLoss="60.88" rerouteNo="0" devices="tripinfo_car_19" vType="car" speedFactor="0.93" vaporized=""/>
    <tripinfo id="car_20" depart="30.00" departLane="313992354#1_0" departPos="5.10" departPosLat="0.00" departSpeed="12.20" departDelay="0.00" arrival="156.00" arrivalLane="1362020490_0" arrivalPos="77.99" arrivalPosLat="0.00" arrivalSpeed="12.14" duration="126.00" routeLength="765.67" waitingTime="53.00" waitingCount="1" stopTime="0.00" timeLoss="62.60" rerouteNo="0" devices="tripinfo_car_20" vType="car" speedFactor="0.88" vaporized=""/>
    <tripinfo id="car_73" depart="110.00" departLane="200568455#0_1" departPos="5.10" departPosLat="0.00" departSpeed="15.22" departDelay="0.50" arrival="160.00" arrivalLane="224821293#2_0" arrivalPos="34.63" arrivalPosLat="0.00" arrivalSpeed="14.74" duration="50.00" routeLength="732.46" waitingTime="0.00" waitingCount="0" stopTime="0.00" timeLoss="1.81" rerouteNo="0" devices="tripinfo_car_73" vType="car" speedFactor="1.10" vaporized=""/>
    <tripinfo id="car_24" depart="36.00" departLane="61293002_0" departPos="5.10" departPosLat="0.00" departSpeed="7.80" departDelay="0.00" arrival="163.00" arrivalLane="1362020490_0" arrivalPos="77.99" arrivalPosLat="0.00" arrivalSpeed="12.52" duration="127.00" routeLength="855.59" waitingTime="20.00" waitingCount="2" stopTime="0.00" timeLoss="36.14" rerouteNo="0" devices="tripinfo_car_24" vType="car" speedFactor="0.94" vaporized=""/>
    <tripinfo id="car_64" depart="96.00" departLane="196662201_0" departPos="5.10" departPosLat="0.00" departSpeed="13.85" departDelay="0.00" arrival="164.00" arrivalLane="1362020490_1" arrivalPos="77.99" arrivalPosLat="0.00" arrivalSpeed="13.16" duration="68.00" routeLength="860.70" waitingTime="0.00" waitingCount="0" stopTime="0.00" timeLoss="4.59" rerouteNo="0" devices="tripinfo_car_64" vType="car" speedFactor="1.00" vaporized=""/>
    <tripinfo id="car_65" depart="98.00" departLane="200568455#0_0" departPos="5.10" departPosLat="0.00" departSpeed="12.51" departDelay="0.50" arrival="169.00" arrivalLane="25126523_0" arrivalPos="54.66" arrivalPosLat="0.00" arrivalSpeed="12.18" duration="71.00" routeLength="836.97" waitingTime="0.00" waitingCount="0" stopTime="0.00" timeLoss="3.50" rerouteNo="0" devices="tripinfo_car_65" vType="car" speedFactor="0.90" vaporized=""/>
    <tripinfo id="car_9" depart="14.00" departLane="187938712_0" departPos="5.10" departPosLat="0.00" departSpeed="8.80" departDelay="0.50" arrival="170.00" arrivalLane="1232799371#4_0" arrivalPos="128.83" arrivalPosLat="0.00" arrivalSpeed="11.94" duration="156.00" routeLength="1578.05" waitingTime="0.00" waitingCount="0" stopTime="0.00" timeLoss="13.52" rerouteNo="0" devices="tripinfo_car_9" vType="car" speedFactor="0.94" vaporized=""/>
    <tripinfo id="car_50" depart="75.00" departLane="61316958_0" departPos="5.10" departPosLat="0.00" departSpeed="10.24" departDelay="0.00" arrival="170.00" arrivalLane="1147624737#1_0" arrivalPos="232.89" arrivalPosLat="0.00" arrivalSpeed="16.20" duration="95.00" routeLength="845.45" waitingTime="28.00" waitingCount="1" stopTime="0.00" timeLoss="42.94" rerouteNo="0" devices="tripinfo_car_50" vType="car" speedFactor="1.18" vaporized=""/>
    <tripinfo id="car_96" depart="144.00" departLane="200568455#0_0" departPos="5.10" departPosLat="0.00" departSpeed="14.11" departDelay="0.00" arrival="178.00" arrivalLane="236818214_0" arrivalPos="44.55" arrivalPosLat="0.00" arrivalSpeed="12.91" duration="34.00" routeLength="454.31" waitingTime="0.00" waitingCount="0" stopTime="0.00" timeLoss="1.73" rerouteNo="0" devices="tripinfo_car_96" vType="car" speedFactor="1.02" vaporized=""/>
    <tripinfo id="car_41" depart="62.00" departLane="E2_0" departPos="5.10" departPosLat="0.00" departSpeed="3.27" departDelay="0.50" arrival="185.00" arrivalLane="236809165_0" arrivalPos="92.40" arrivalPosLat="0.00" arrivalSpeed="15.08" duration="123.00" routeLength="1200.86" waitingTime="41.00" waitingCount="1" stopTime="0.00" timeLoss="48.96" rerouteNo="0" devices="tripinfo_car_41" vType="car" speedFactor="1.18" vaporized=""/>
    <tripinfo id="car_13" depart="20.00" departLane="200568455#0_0" departPos="5.10" departPosLat="0.00" departSpeed="15.15" departDelay="0.50" arrival="190.00" arrivalLane="61295588#0_0" arrivalPos="38.40" arrivalPosLat="0.00" arrivalSpeed="14.92" duration="170.00" routeLength="1099.35" waitingTime="75.00" waitingCount="1" stopTime="0.00" timeLoss="86.51" rerouteNo="0" devices="tripinfo_car_13" vType="car" speedFactor="1.09" vaporized=""/>
    <tripinfo id="car_44" depart="66.00" departLane="1362017841_0" departPos="5.10" departPosLat="0.00" departSpeed="16.28" departDelay="0.00" arrival="191.00" arrivalLane="236809165_0" arrivalPos="92.40" arrivalPosLat="0.00" arrivalSpeed="15.86" duration="125.00" routeLength="1381.16" waitingTime="28.00" waitingCount="1" stopTime="0.00" timeLoss="39.36" rerouteNo="0" devices="tripinfo_car_44" vType="car" speedFactor="1.17" vaporized=""/>
    <tripinfo id="car_106" depart="159.00" departLane="29114711#0.184_0" departPos="5.10" departPosLat="0.00" departSpeed="14.21" departDelay="0.00" arrival="199.00" arrivalLane="1362017843_0" arrivalPos="165.24" arrivalPosLat="0.00" arrivalSpeed="13.12" duration="40.00" routeLength="531.51" waitingTime="0.00" waitingCount="0" stopTime="0.00" timeLoss="2.01" rerouteNo="0" devices="tripinfo_car_106" vType="car" speedFactor="1.02" vaporized=""/>
    <tripinfo id="car_112" depart="168.00" departLane="161297934_1" departPos="5.10" departPosLat="0.00" departSpeed="14.34" departDelay="0.00" arrival="199.00" arrivalLane="942711932#0_1" arrivalPos="28.73" arrivalPosLat="0.00" arrivalSpeed="6.41" duration="31.00" routeLength="313.62" waitingTime="1.00" waitingCount="1" stopTime="0.00" timeLoss="8.65" rerouteNo="0" devices="tripinfo_car_112" vType="car" speedFactor="1.03" vaporized=""/>
    <tripinfo id="car_52" depart="78.00" departLane="287956206#2_0" departPos="5.10" departPosLat="0.00" departSpeed="10.58" departDelay="0.00" arrival="213.00" arrivalLane="-1316855122#3_0" arrivalPos="353.66" arrivalPosLat="0.00" arrivalSpeed="6.79" duration="135.00" routeLength="835.67" waitingTime="20.00" waitingCount="1" stopTime="0.00" timeLoss="36.77" rerouteNo="0" devices="tripinfo_car_52" vType="car" speedFactor="0.90" vaporized=""/>
    <tripinfo id="car_46" depart="69.00" departLane="61316958_0" departPos="5.10" departPosLat="0.00" departSpeed="11.10" departDelay="0.00" arrival="215.00" arrivalLane="-1316855122#3_0" arrivalPos="353.66" arrivalPosLat="0.00" arrivalSpeed="7.38" duration="146.00" routeLength="995.22" waitingTime="18.00" waitingCount="1" stopTime="0.00" timeLoss="45.55" rerouteNo="0" devices="tripinfo_car_46" vType="car" speedFactor="0.99" vaporized=""/>
    <tripinfo id="car_70" depart="105.00" departLane="313992354#1_0" departPos="5.10" departPosLat="0.00" departSpeed="16.24" departDelay="0.00" arrival="217.00" arrivalLane="-1316855122#3_0" arrivalPos="353.66" arrivalPosLat="0.00" arrivalSpeed="9.05" duration="112.00" routeLength="1003.13" waitingTime="0.00" waitingCount="0" stopTime="0.00" timeLoss="26.53" rerouteNo="0" devices="tripinfo_car_70" vType="car" speedFactor="1.17" vaporized=""/>
    <tripinfo id="car_68" depart="102.00" departLane="200568455#0_1" departPos="5.10" departPosLat="0.00" departSpeed="11.87" departDelay="0.00" arrival="219.00" arrivalLane="61295588#0_0" arrivalPos="38.40" arrivalPosLat="0.00" arrivalSpeed="10.91" duration="117.00" routeLength="1099.35" waitingTime="0.00" waitingCount="0" stopTime="0.00" timeLoss="10.02" rerouteNo="0" devices="tripinfo_car_68" vType="car" speedFactor="0.85" vaporized=""/>
    <tripinfo id="car_122" depart="183.00" departLane="61316915_0" departPos="5.10" departPosLat="0.00" departSpeed="14.12" departDelay="0.00" arrival="220.00" arrivalLane="27476764#0_0" arrivalPos="24.01" arrivalPosLat="0.00" arrivalSpeed="7.71" duration="37.00" routeLength="332.92" waitingTime="0.00" waitingCount="0" stopTime="0.00" timeLoss="3.83" rerouteNo="0" devices="tripinfo_car_122" vType="car" speedFactor="1.02" vaporized=""/>
    <tripinfo id="car_27" depart="41.00" departLane="200568455#0_1" departPos="5.10" departPosLat="0.00" departSpeed="14.14" departDelay="0.50" arrival="227.00" arrivalLane="236809165_0" arrivalPos="92.40" arrivalPosLat="0.00" arrivalSpeed="12.97" duration="186.00" routeLength="1739.31" waitingTime="51.00" waitingCount="1" stopTime="0.00" timeLoss="62.63" rerouteNo="0" devices="tripinfo_car_27" vType="car" speedFactor="1.02" vaporized=""/>
    <tripinfo id="car_30" depart="45.00" departLane="200568455#0_0" departPos="5.10" departPosLat="0.00" departSpeed="13.54" departDelay="0.00" arrival="231.00" arrivalLane="236809165_0" arrivalPos="92.40" arrivalPosLat="0.00" arrivalSpeed="12.80" duration="186.00" routeLength="1739.31" waitingTime="46.00" waitingCount="1" stopTime="0.00" timeLoss="57.19" rerouteNo="0" devices="tripinfo_car_30" vType="car" speedFactor="0.97" vaporized=""/>
    <tripinfo id="car_1" depart="2.00" departLane="200568455#0_0" departPos="5.10" departPosLat="0.00" departSpeed="14.72" departDelay="0.50" arrival="232.00" arrivalLane="1147624737#1_0" arrivalPos="232.89" arrivalPosLat="0.00" arrivalSpeed="13.66" duration="230.00" routeLength="1362.69" waitingTime="125.00" waitingCount="1" stopTime="0.00" timeLoss="135.60" rerouteNo="0" devices="tripinfo_car_1" vType="car" speedFactor="1.06" vaporized=""/>
    <tripinfo id="car_32" depart="48.00" departLane="200568455#0_2" departPos="5.10" departPosLat="0.00" departSpeed="12.36" departDelay="0.00" arrival="239.00" arrivalLane="-1316855122#3_0" arrivalPos="353.66" arrivalPosLat="0.00" arrivalSpeed="6.32" duration="191.00" routeLength="1290.85" waitingTime="39.00" waitingCount="1" stopTime="0.00" timeLoss="55.92" rerouteNo="0" devices="tripinfo_car_32" vType="car" speedFactor="0.89" vaporized=""/>
    <tripinfo id="car_107" depart="161.00" departLane="61293002_0" departPos="5.10" departPosLat="0.00" departSpeed="8.10" departDelay="0.50" arrival="241.00" arrivalLane="25126523_0" arrivalPos="54.66" arrivalPosLat="0.00" arrivalSpeed="12.76" duration="80.00" routeLength="636.42" waitingTime="0.00" waitingCount="0" stopTime="0.00" timeLoss="8.84" rerouteNo="0" devices="tripinfo_car_107" vType="car" speedFactor="0.97" vaporized=""/>
    <tripinfo id="car_67" depart="101.00" departLane="1362017843_0" departPos="5.10" departPosLat="0.00" departSpeed="11.81" departDelay="0.50" arrival="248.00" arrivalLane="1147624737#1_0" arrivalPos="232.89" arrivalPosLat="0.00" arrivalSpeed="11.44" duration="147.00" routeLength="1099.65" waitingTime="42.00" waitingCount="1" stopTime="0.00" timeLoss="52.25" rerouteNo="0" devices="tripinfo_car_67" vType="car" speedFactor="0.85" vaporized=""/>
    <tripinfo id="car_144" depart="222.00" departLane="27476764#0_0" departPos="5.10" departPosLat="0.00" departSpeed="6.42" departDelay="6.00" arrival="259.00" arrivalLane="1362020490_0" arrivalPos="77.99" arrivalPosLat="0.00" arrivalSpeed="14.45" duration="37.00" routeLength="396.06" waitingTime="0.00" waitingCount="0" stopTime="0.00" timeLoss="5.92" rerouteNo="0" devices="tripinfo_car_144" vType="car" speedFactor="1.06" vaporized=""/>
    <tripinfo id="car_42" depart="63.00" departLane="161297931#0_0" departPos="5.10" departPosLat="0.00" departSpeed="16.03" departDelay="0.00" arrival="269.00" arrivalLane="1147624737#1_0" arrivalPos="232.89" arrivalPosLat="0.00" arrivalSpeed="15.96" duration="206.00" routeLength="899.04" waitingTime="134.00" waitingCount="2" stopTime="0.00" timeLoss="148.95" rerouteNo="0" devices="tripinfo_car_42" vType="car" speedFactor="1.15" vaporized=""/>
    <tripinfo id="car_129" depart="194.00" departLane="1232799370_0" departPos="5.10" departPosLat="0.00" departSpeed="13.99" departDelay="0.50" arrival="270.00" arrivalLane="236809165_0" arrivalPos="92.40" arrivalPosLat="0.00" arrivalSpeed="13.90" duration="76.00" routeLength="1001.45" waitingTime="0.00" waitingCount="0" stopTime="0.00" timeLoss="3.60" rerouteNo="0" devices="tripinfo_car_129" vType="car" speedFactor="1.01" vaporized=""/>
    <tripinfo id="car_18" depart="27.00" departLane="200568455#0_1" departPos="5.10" departPosLat="0.00" departSpeed="13.77" departDelay="0.00" arrival="276.00" arrivalLane="1147624737#1_0" arrivalPos="232.89" arrivalPosLat="0.00" arrivalSpeed="13.40" duration="249.00" routeLength="1362.69" waitingTime="128.00" waitingCount="2" stopTime="0.00" timeLoss="148.11" rerouteNo="0" devices="tripinfo_car_18" vType="car" speedFactor="0.99" vaporized=""/>
    <tripinfo id="car_91" depart="137.00" departLane="961539471_0" departPos="5.10" departPosLat="0.00" departSpeed="10.50" departDelay="0.50" arrival="277.00" arrivalLane="1232799370_1" arrivalPos="369.67" arrivalPosLat="0.00" arrivalSpeed="13.31" duration="140.00" routeLength="557.18" waitingTime="85.00" waitingCount="2" stopTime="0.00" timeLoss="97.63" rerouteNo="0" devices="tripinfo_car_91" vType="car" speedFactor="0.97" vaporized=""/>
    <tripinfo id="car_21" depart="32.00" departLane="200568455#0_0" departPos="5.10" departPosLat="0.00" departSpeed="13.08" departDelay="0.50" arrival="278.00" arrivalLane="1147624737#1_1" arrivalPos="232.89" arrivalPosLat="0.00" arrivalSpeed="13.04" duration="246.00" routeLength="1362.69" waitingTime="118.00" waitingCount="3" stopTime="0.00" timeLoss="140.45" rerouteNo="0" devices="tripinfo_car_21" vType="car" speedFactor="0.94" vaporized=""/>
    <tripinfo id="car_108" depart="162.00" departLane="161297934_0" departPos="5.10" departPosLat="0.00" departSpeed="13.06" departDelay="0.00" arrival="281.00" arrivalLane="-1316855122#3_0" arrivalPos="353.66" arrivalPosLat="0.00" arrivalSpeed="6.79" duration="119.00" routeLength="980.06" waitingTime="0.00" waitingCount="0" stopTime="0.00" timeLoss="10.47" rerouteNo="0" devices="tripinfo_car_108" vType="car" speedFactor="0.94" vaporized=""/>
    <tripinfo id="car_55" depart="83.00" departLane="200568455#0_0" departPos="5.10" departPosLat="0.00" departSpeed="13.29" departDelay="0.50" arrival="284.00" arrivalLane="287311357#0_1" arrivalPos="12.64" arrivalPosLat="0.00" arrivalSpeed="6.64" duration="201.00" routeLength="784.83" waitingTime="111.00" waitingCount="3" stopTime="0.00" timeLoss="140.10" rerouteNo="0" devices="tripinfo_car_55" vType="car" speedFactor="0.96" vaporized=""/>
    <tripinfo id="car_148" depart="222.00" departLane="61293002_0" departPos="5.10" departPosLat="0.00" departSpeed="8.07" departDelay="0.00" arrival="293.00" arrivalLane="-1348067248_0" arrivalPos="39.26" arrivalPosLat="0.00" arrivalSpeed="7.98" duration="71.00" routeLength="528.12" waitingTime="0.00" waitingCount="0" stopTime="0.00" timeLoss="7.32" rerouteNo="0" devices="tripinfo_car_148" vType="car" speedFactor="0.97" vaporized=""/>
    <tripinfo id="car_125" depart="188.00" departLane="287956206#2_0" departPos="5.10" departPosLat="0.00" departSpeed="10.58" departDelay="0.50" arrival="296.00" arrivalLane="224821293#2_2" arrivalPos="34.63" arrivalPosLat="0.00" arrivalSpeed="13.00" duration="108.00" routeLength="274.13" waitingTime="71.00" waitingCount="2" stopTime="0.00" timeLoss="86.37" rerouteNo="0" devices="tripinfo_car_125" vType="car" speedFactor="0.98" vaporized=""/>
    <tripinfo id="car_143" depart="215.00" departLane="61293002_0" departPos="5.10" departPosLat="0.00" departSpeed="9.14" departDelay="0.50" arrival="296.00" arrivalLane="1362019277_0" arrivalPos="136.38" arrivalPosLat="0.00" arrivalSpeed="14.68" duration="81.00" routeLength="777.30" waitingTime="0.00" waitingCount="0" stopTime="0.00" timeLoss="8.96" rerouteNo="0" devices="tripinfo_car_143" vType="car" speedFactor="1.10" vaporized=""/>
    <tripinfo id="car_131" depart="197.00" departLane="61293002_0" departPos="5.10" departPosLat="0.00" departSpeed="8.47" departDelay="0.50" arrival="300.00" arrivalLane="1362020490_0" arrivalPos="77.99" arrivalPosLat="0.00" arrivalSpeed="13.83" duration="103.00" routeLength="855.59" waitingTime="7.00" waitingCount="1" stopTime="0.00" timeLoss="19.42" rerouteNo="0" devices="tripinfo_car_131" vType="car" speedFactor="1.02" vaporized=""/>
    <tripinfo id="car_161" depart="242.00" departLane="961539471_0" departPos="5.10" departPosLat="0.00" departSpeed="14.02" departDelay="0.50" arrival="308.00" arrivalLane="187938712_0" arrivalPos="14.46" arrivalPosLat="0.00" arrivalSpeed="13.32" duration="66.00" routeLength="395.63" waitingTime="19.00" waitingCount="2" stopTime="0.00" timeLoss="36.74" rerouteNo="0" devices="tripinfo_car_161" vType="car" speedFactor="1.01" vaporized=""/>
    <tripinfo id="car_182" depart="273.00" departLane="407552210#0_0" departPos="5.10" departPosLat="0.00" departSpeed="4.57" departDelay="0.00" arrival="310.00" arrivalLane="430532795_0" arrivalPos="303.61" arrivalPosLat="0.00" arrivalSpeed="10.75" duration="37.00" routeLength="335.03" waitingTime="0.00" waitingCount="0" stopTime="0.00" timeLoss="4.06" rerouteNo="0" devices="tripinfo_car_182" vType="car" speedFactor="0.82" vaporized=""/>
    <tripinfo id="car_6" depart="9.00" departLane="61293002_0" departPos="5.10" departPosLat="0.00" departSpeed="6.92" departDelay="0.00" arrival="314.00" arrivalLane="236818221#0_0" arrivalPos="32.76" arrivalPosLat="0.00" arrivalSpeed="11.53" duration="305.00" routeLength="826.52" waitingTime="175.00" waitingCount="2" stopTime="0.00" timeLoss="196.04" rerouteNo="0" devices="tripinfo_car_6" vType="car" speedFactor="0.83" vaporized=""/>
    <tripinfo id="car_39" depart="59.00" departLane="287311363#0_0" departPos="5.10" departPosLat="0.00" departSpeed="9.43" departDelay="0.50" arrival="316.00" arrivalLane="236818221#0_1" arrivalPos="32.76" arrivalPosLat="0.00" arrivalSpeed="11.23" duration="257.00" routeLength="618.55" waitingTime="172.00" waitingCount="2" stopTime="0.00" timeLoss="201.19" rerouteNo="0" devices="tripinfo_car_39" vType="car" speedFactor="1.13" vaporized=""/>
    <tripinfo id="car_142" depart="243.00" departLane="153776637#0_0" departPos="5.10" departPosLat="0.00" departSpeed="2.30" departDelay="30.00" arrival="316.00" arrivalLane="277203712_0" arrivalPos="20.63" arrivalPosLat="0.00" arrivalSpeed="14.36" duration="73.00" routeLength="1003.24" waitingTime="0.00" waitingCount="0" stopTime="0.00" timeLoss="7.66" rerouteNo="0" devices="tripinfo_car_142" vType="car" speedFactor="1.12" vaporized=""/>
    <tripinfo id="car_192" depart="288.00" departLane="29092803_0" departPos="5.10" departPosLat="0.00" departSpeed="15.55" departDelay="0.00" arrival="318.00" arrivalLane="-27476683_0" arrivalPos="171.46" arrivalPosLat="0.00" arrivalSpeed="8.75" duration="30.00" routeLength="264.91" waitingTime="0.00" waitingCount="0" stopTime="0.00" timeLoss="3.57" rerouteNo="0" devices="tripinfo_car_192" vType="car" speedFactor="1.12" vaporized=""/>
    <tripinfo id="car_95" depart="143.00" departLane="961539471_0" departPos="5.10" departPosLat="0.00" departSpeed="15.55" departDelay="0.50" arrival="320.00" arrivalLane="1147624737#1_0" arrivalPos="232.89" arrivalPosLat="0.00" arrivalSpeed="14.67" duration="177.00" routeLength="806.16" waitingTime="115.00" waitingCount="1" stopTime="0.00" timeLoss="124.58" rerouteNo="0" devices="tripinfo_car_95" vType="car" speedFactor="1.12" vaporized=""/>
    <tripinfo id="car_186" depart="279.00" departLane="287956205_0" departPos="5.10" departPosLat="0.00" departSpeed="14.84" departDelay="0.00" arrival="322.00" arrivalLane="1362020490_0" arrivalPos="77.99" arrivalPosLat="0.00" arrivalSpeed="14.50" duration="43.00" routeLength="334.36" waitingTime="13.00" waitingCount="1" stopTime="0.00" timeLoss="20.27" rerouteNo="0" devices="tripinfo_car_186" vType="car" speedFactor="1.07" vaporized=""/>
    <tripinfo id="car_136" depart="204.00" departLane="961539471_0" departPos="5.10" departPosLat="0.00" departSpeed="15.15" departDelay="0.00" arrival="323.00" arrivalLane="1147624737#1_1" arrivalPos="232.89" arrivalPosLat="0.00" arrivalSpeed="14.94" duration="119.00" routeLength="806.16" waitingTime="55.00" waitingCount="1" stopTime="0.00" timeLoss="65.70" rerouteNo="0" devices="tripinfo_car_136" vType="car" speedFactor="1.09" vaporized=""/>
    <tripinfo id="car_81" depart="122.00" departLane="961539471_0" departPos="5.10" departPosLat="0.00" departSpeed="13.83" departDelay="0.50" arrival="325.00" arrivalLane="1147624737#1_0" arrivalPos="232.89" arrivalPosLat="0.00" arrivalSpeed="12.65" duration="203.00" routeLength="806.16" waitingTime="136.00" waitingCount="1" stopTime="0.00" timeLoss="144.43" rerouteNo="0" devices="tripinfo_car_81" vType="car" speedFactor="1.00" vaporized=""/>